 +-------------------------------------------------+
 |                                                 |
 |      CCC   AA    SSS  TTTTT  EEEEE  PPPP        |
 |     C     A  A  S       T    E      P   P       |
 |     C     AAAA   SS     T    EEE    PPPP        |
 |     C     A  A     S    T    E      P           |
 |      CCC  A  A  SSS     T    EEEEE  P           |
 |                                                 |
 +-------------------------------------------------+
 |                                                 |
 | Welcome to Academic Release CASTEP version 6.11 |
 | Ab Initio Total Energy Program                  |
 |                                                 |
 | Authors:                                        |
 | M. Segall, M. Probert, C. Pickard, P. Hasnip,   |
 | S. Clark, K. Refson, J. R. Yates, M. Payne      |
 |                                                 |
 | Contributors:                                   |
 | P. Lindan, P. Haynes, J. White, V. Milman,      |
 | N. Govind, M. Gibson, P. Tulip, V. Cocula,      |
 | B. Montanari, D. Quigley, M. Glover,            |
 | L. Bernasconi, A. Perlov, M. Plummer,           |
 | E. McNellis, J. Meyer, J. Gale, D. Jochym       |
 | J. Aarons, B. Walker, R. Gillen                 |
 |                                                 |
 | Copyright (c) 2000 - 2012                       |
 |                                                 |
 |     Distributed under the terms of an           |
 |     Agreement between the United Kingdom        |
 |     Car-Parrinello (UKCP) Consortium,           |
 |     Daresbury Laboratory and Accelrys, Inc.     |
 |                                                 |
 | Please cite                                     |
 |                                                 |
 |     "First principles methods using CASTEP"     |
 |                                                 |
 |         Zeitschrift fuer Kristallographie       |
 |           220(5-6) pp. 567-570 (2005)           |
 |                                                 |
 | S. J. Clark, M. D. Segall, C. J. Pickard,       |
 | P. J. Hasnip, M. J. Probert, K. Refson,         |
 | M. C. Payne                                     |
 |                                                 |
 |       in all publications arising from          |
 |              your use of CASTEP                 |
 |                                                 |
 +-------------------------------------------------+


 Compiled for linux_x86_64_gfortran on Tue Jul 23 08:36:46 2013
 from source code version 17dc085fd1b9+ Castep61_branch 2013-03-13
 using intermediate optimisation, default FFTs and default LAPACK and BLAS.


 Atomic calculation performed for Ca: 1s2 2s2 2p6 3s2 3p6 4s2

 Converged in 54 iterations to an ae energy of -18512.579 eV

   ============================================================                
   | Pseudopotential Report - Date of generation 29-03-2015   |                
   ------------------------------------------------------------                
   | Element: Ca Ionic charge: 10.00 Level of theory: PBE     |                
   |                                                          |                
   |               Reference Electronic Structure             |                
   |         Orbital         Occupation         Energy        |                
   |            3s              2.000           -1.731        |                
   |            3p              6.000           -1.029        |                
   |            4s              2.000           -0.138        |                
   |                                                          |                
   |                 Pseudopotential Definition               |                
   |        Beta     l      e      Rc     scheme   norm       |                
   |          1      0   -1.731   2.005     qc      0         |                
   |          2      0   -0.138   2.005     qc      0         |                
   |          3      1   -1.029   2.005     qc      0         |                
   |          4      1    0.250   2.005     qc      0         |                
   |          5      2    0.000   2.005     qc      0         |                
   |          6      2    1.000   2.005     qc      0         |                
   |         loc     3    0.000   1.601     pn      0         |                
   |                                                          |                
   | Augmentation charge Rinner = 1.401                       |                
   | Partial core correction Rc = 1.401                       |                
   ------------------------------------------------------------                
   | "3|1.6|2.0|1.4|7|9|10|30U:40U:31:32U=0U=1.0"             |                
   ------------------------------------------------------------                
   |      Author: Chris J. Pickard, Cambridge University      |                
   ============================================================                

 Pseudo atomic calculation performed for Ca 3s2 3p6 4s2

 Converged in 19 iterations to a total energy of -1001.1905 eV

 Calculation not parallelised.

 ************************************ Title ************************************
 

 ***************************** General Parameters ******************************
  
 output verbosity                               : normal  (1)
 write checkpoint data to                       : Ca.check
 type of calculation                            : Thermodynamics calculation
 stress calculation                             : off
 density difference calculation                 : off
 electron localisation func (ELF) calculation   : off
 Hirshfeld analysis                             : off
 unlimited duration calculation
 timing information                             : on
 memory usage estimate                          : on
 write final potential to formatted file        : off
 write final density to formatted file          : off
 write BibTeX reference list                    : on
  
 output         length unit                     : A
 output           mass unit                     : amu
 output           time unit                     : ps
 output         charge unit                     : e
 output         energy unit                     : eV
 output          force unit                     : eV/A
 output       velocity unit                     : A/ps
 output       pressure unit                     : GPa
 output     inv_length unit                     : 1/A
 output      frequency unit                     : cm-1
 output force constant unit                     : eV/A**2
 output         volume unit                     : A**3
 output   IR intensity unit                     : (D/A)**2/amu
 output         dipole unit                     : D
 output         efield unit                     : eV/A/e
 output        entropy unit                     : J/mol/K
  
 wavefunctions paging                           : none
 data distribution                              : optimal for this architecture
 optimization strategy                          : maximize speed(+++)

 *********************** Exchange-Correlation Parameters ***********************
  
 using functional                               : Perdew Wang (1991)
 Divergence correction                          : off
 DFT+D: Semi-empirical dispersion correction    : off

 ************************* Pseudopotential Parameters **************************
  
 pseudopotential representation                 : reciprocal space
 <beta|phi> representation                      : reciprocal space

 **************************** Basis Set Parameters *****************************
  
 plane wave basis set cut-off                   :   500.0000   eV
 finite basis set correction                    : none

 **************************** Electronic Parameters ****************************
  
 number of  electrons                           :  20.00    
 net charge of system                           :  0.000    
 net spin   of system                           :  0.000    
 number of  up  spins                           :  10.00    
 number of down spins                           :  10.00    
 treating system as non-spin-polarized
 number of bands                                :         14

 ********************* Electronic Minimization Parameters **********************
  
 Method: Treating system as metallic with density mixing treatment of electrons,
         and number of  SD  steps               :          1
         and number of  CG  steps               :          4
  
 total energy / atom convergence tol.           : 0.1000E-04   eV
 eigen-energy convergence tolerance             : 0.1000E-05   eV
 max force / atom convergence tol.              : ignored
 convergence tolerance window                   :          3   cycles
 max. number of SCF cycles                      :         30
 number of fixed-spin iterations                :         10
 smearing scheme                                : Gaussian
 smearing width                                 : 0.4000E-01   eV
 Fermi energy convergence tolerance             : 0.1000E-06   eV
 periodic dipole correction                     : NONE

 ************************** Density Mixing Parameters **************************
  
 density-mixing scheme                          : Broyden
 max. length of mixing history                  :          7
 charge density mixing amplitude                : 0.8000    
 cut-off energy for mixing                      :  500.0       eV

 *********************** Population Analysis Parameters ************************
  
 Population analysis with cutoff                :  3.000       A

 ****************************** Phonon Parameters ******************************
  
 phonon calculation method                      : finite displacement
 finite displacement amplitude                  : 0.5292E-02   A
 fine phonon calculation method                 : supercell
 non-periodic force constant method             : Weighted cumulant sum
 LO/TO splitting term                           : not included
 acoustic phonon sum rule                       : correct D(q) in recip-space
 Born effective charges                         : not calculated
 Raman intensities                              : not calculated
 phonon k-points                                : use reduced set
 phonon DOS                                     : not calculated
 no timed backups

 ************************** Thermodynamics Parameters **************************
 Helmholtz free energy                          : calculated
 Initial temperature                            :  0.000       K
 Final temperature                              :  300.0       K
 Spacing between temperature values             :  3.000       K
 Number of temperature values                   :        102
 band convergence tolerance                     : 0.1000E-05   eV

 *******************************************************************************
  

                           -------------------------------
                                      Unit Cell
                           -------------------------------
        Real Lattice(A)                      Reciprocal Lattice(1/A)
   4.3854505   0.0000000   0.0000000        1.4327343  -0.0000000  -0.0000000
   0.0000000   4.3854505   0.0000000        0.0000000   1.4327343  -0.0000000
   0.0000000   0.0000000   4.3854505        0.0000000   0.0000000   1.4327343

                       Lattice parameters(A)       Cell Angles
                    a =    4.385451          alpha =   90.000000
                    b =    4.385451          beta  =   90.000000
                    c =    4.385451          gamma =   90.000000

                       Current cell volume =   84.341756       A**3

                           -------------------------------
                                     Cell Contents
                           -------------------------------
                         Total number of ions in cell =    2
                      Total number of species in cell =    1
                        Max number of any one species =    2

            xxxxxxxxxxxxxxxxxxxxxxxxxxxxxxxxxxxxxxxxxxxxxxxxxxxxxxxxxxxx
            x  Element    Atom        Fractional coordinates of atoms  x
            x            Number           u          v          w      x
            x----------------------------------------------------------x
            x  Ca           1         0.000000   0.000000   0.000000   x
            x  Ca           2         0.500000   0.500000   0.500000   x
            xxxxxxxxxxxxxxxxxxxxxxxxxxxxxxxxxxxxxxxxxxxxxxxxxxxxxxxxxxxx


                         No user defined ionic velocities

                           -------------------------------
                                   Details of Species
                           -------------------------------

                               Mass of species in AMU
                                    Ca   40.0780000

                          Electric Quadrupole Moment (Barn)
                                    Ca   -0.0408000 Isotope 43

                          Files used for pseudopotentials:
                                    Ca Pseudopotential generated on-the-fly

                           -------------------------------
                              k-Points For BZ Sampling
                           -------------------------------
                       MP grid size for SCF calculation is  4  4  4
                         Number of kpoints used =           4

             +++++++++++++++++++++++++++++++++++++++++++++++++++++++
             +  Number       Fractional coordinates        Weight  +
             +-----------------------------------------------------+
             +     1  -0.375000   0.125000  -0.375000   0.3750000  +
             +     2   0.125000  -0.375000  -0.125000   0.3750000  +
             +     3   0.125000  -0.125000  -0.125000   0.1250000  +
             +     4   0.375000   0.375000   0.375000   0.1250000  +
             +++++++++++++++++++++++++++++++++++++++++++++++++++++++

                           -------------------------------
                               Symmetry and Constraints
                           -------------------------------

                      Number of symmetry operations   =          48
                      Number of ionic constraints     =           3
                      Maximum deviation from symmetry = 0.537063E-15     ANG
               Point group of crystal =    32: Oh, m-3m, 4/m -3 2/m
           Set iprint > 1 for details on symmetry rotations/translations

                          Centre of mass is constrained
             Set iprint > 1 for details of linear ionic constraints

                         Number of cell constraints= 5
                         Cell constraints are:  1 1 1 0 0 0

                         External pressure/stress (GPa)
                          0.00000   0.00000   0.00000
                                    0.00000   0.00000
                                              0.00000
  
+---------------- MEMORY AND SCRATCH DISK ESTIMATES PER NODE -----------------+
|                                                     Memory          Disk    |
| Model and support data                               70.7 MB         0.0 MB |
| Electronic energy minimisation requirements           6.6 MB         0.0 MB |
|                                               ----------------------------- |
| Approx. total storage required per node              77.3 MB         0.0 MB |
|                                                                             |
| Requirements will fluctuate during execution and may exceed these estimates |
+-----------------------------------------------------------------------------+
------------------------------------------------------------------------ <-- SCF
SCF loop      Energy           Fermi           Energy gain       Timer   <-- SCF
                               energy          per atom          (sec)   <-- SCF
------------------------------------------------------------------------ <-- SCF
Initial  -1.74299854E+003  0.00000000E+000                         9.38  <-- SCF
      1  -1.96905260E+003  6.56391831E+000   1.13027033E+002       9.88  <-- SCF
      2  -2.00662702E+003  3.92949489E+000   1.87872070E+001      10.25  <-- SCF
      3  -2.00745834E+003  3.76047985E+000   4.15662270E-001      10.71  <-- SCF
      4  -2.00748081E+003  3.76729947E+000   1.12351269E-002      11.21  <-- SCF
      5  -2.00748529E+003  3.76343151E+000   2.23793634E-003      11.76  <-- SCF
      6  -2.00748586E+003  3.76230114E+000   2.84942850E-004      12.21  <-- SCF
      7  -2.00748586E+003  3.76199323E+000  -6.07631550E-007      12.57  <-- SCF
      8  -2.00748585E+003  3.76183629E+000  -1.85704483E-007      12.89  <-- SCF
------------------------------------------------------------------------ <-- SCF
 
Final energy, E             =  -2007.477963448     eV
Final free energy (E-TS)    =  -2007.485854926     eV
(energies not corrected for finite basis set)
 
NB est. 0K energy (E-0.5TS)      =  -2007.481909187     eV
 

Writing model to Ca.check
                                                                         
              The requested supercell has been generated                 
                                                                         

                           -------------------------------
                                      Unit Cell
                           -------------------------------
        Real Lattice(A)                      Reciprocal Lattice(1/A)
   8.7709010   0.0000000   0.0000000        0.7163671  -0.0000000  -0.0000000
   0.0000000   8.7709010   0.0000000        0.0000000   0.7163671  -0.0000000
   0.0000000   0.0000000   8.7709010        0.0000000   0.0000000   0.7163671

                       Lattice parameters(A)       Cell Angles
                    a =    8.770901          alpha =   90.000000
                    b =    8.770901          beta  =   90.000000
                    c =    8.770901          gamma =   90.000000

                       Current cell volume =  674.734050       A**3

                           -------------------------------
                                     Cell Contents
                           -------------------------------
                         Total number of ions in cell =   16
                      Total number of species in cell =    1
                        Max number of any one species =   16

            xxxxxxxxxxxxxxxxxxxxxxxxxxxxxxxxxxxxxxxxxxxxxxxxxxxxxxxxxxxx
            x  Element    Atom        Fractional coordinates of atoms  x
            x            Number           u          v          w      x
            x----------------------------------------------------------x
            x  Ca           1         0.000000   0.000000   0.000000   x
            x  Ca           2         0.250000   0.250000   0.250000   x
            x  Ca           3         0.500000   0.000000   0.000000   x
            x  Ca           4         0.750000   0.250000   0.250000   x
            x  Ca           5         0.000000   0.500000   0.000000   x
            x  Ca           6         0.250000   0.750000   0.250000   x
            x  Ca           7         0.500000   0.500000   0.000000   x
            x  Ca           8         0.750000   0.750000   0.250000   x
            x  Ca           9         0.000000   0.000000   0.500000   x
            x  Ca          10         0.250000   0.250000   0.750000   x
            x  Ca          11         0.500000   0.000000   0.500000   x
            x  Ca          12         0.750000   0.250000   0.750000   x
            x  Ca          13         0.000000   0.500000   0.500000   x
            x  Ca          14         0.250000   0.750000   0.750000   x
            x  Ca          15         0.500000   0.500000   0.500000   x
            x  Ca          16         0.750000   0.750000   0.750000   x
            xxxxxxxxxxxxxxxxxxxxxxxxxxxxxxxxxxxxxxxxxxxxxxxxxxxxxxxxxxxx


                         No user defined ionic velocities

                           -------------------------------
                                   Details of Species
                           -------------------------------

                               Mass of species in AMU
                                    Ca   40.0780000

                          Electric Quadrupole Moment (Barn)
                                    Ca   -0.0408000 Isotope 43

                          Files used for pseudopotentials:
                                    Ca Pseudopotential generated on-the-fly

                           -------------------------------
                              k-Points For BZ Sampling
                           -------------------------------
                       MP grid size for SCF calculation is  2  2  2
                         Number of kpoints used =           1

             +++++++++++++++++++++++++++++++++++++++++++++++++++++++
             +  Number       Fractional coordinates        Weight  +
             +-----------------------------------------------------+
             +     1  -0.250000  -0.250000  -0.250000   1.0000000  +
             +++++++++++++++++++++++++++++++++++++++++++++++++++++++

                           -------------------------------
                               Symmetry and Constraints
                           -------------------------------

                      Number of symmetry operations   =         384
                      Number of ionic constraints     =           3
                      Maximum deviation from symmetry = 0.537063E-15     ANG
               Point group of crystal =    32: Oh, m-3m, 4/m -3 2/m
           Set iprint > 1 for details on symmetry rotations/translations

                          Centre of mass is constrained
             Set iprint > 1 for details of linear ionic constraints

                         Number of cell constraints= 5
                         Cell constraints are:  1 1 1 0 0 0

                         External pressure/stress (GPa)
                          0.00000   0.00000   0.00000
                                    0.00000   0.00000
                                              0.00000
  +---------------- MEMORY AND SCRATCH DISK ESTIMATES PER NODE -----------------+
  |                                                     Memory          Disk    |
  | Model and support data                               70.1 MB         0.0 MB |
  | Finite displacement phonon requirements             141.1 MB         0.0 MB |
  |                                               ----------------------------- |
  | Approx. total storage required per node             211.2 MB         0.0 MB |
  |                                                                             |
  | Requirements will fluctuate during execution and may exceed these estimates |
  +-----------------------------------------------------------------------------+
------------------------------------------------------------------------ <-- SCF
SCF loop      Energy           Fermi           Energy gain       Timer   <-- SCF
                               energy          per atom          (sec)   <-- SCF
------------------------------------------------------------------------ <-- SCF
Initial  -1.39575806E+004  0.00000000E+000                        16.58  <-- SCF
      1  -1.56516432E+004  6.35490658E+000   1.05878907E+002      46.42  <-- SCF
      2  -1.60429528E+004  4.16715280E+000   2.44568525E+001      67.42  <-- SCF
      3  -1.60589048E+004  3.80372346E+000   9.97002851E-001      93.72  <-- SCF
      4  -1.60598308E+004  3.77098784E+000   5.78701118E-002     120.34  <-- SCF
      5  -1.60598784E+004  3.76438713E+000   2.97838970E-003     146.42  <-- SCF
      6  -1.60598865E+004  3.76251180E+000   5.06329947E-004     171.35  <-- SCF
      7  -1.60598868E+004  3.76187744E+000   1.90543577E-005     191.76  <-- SCF
      8  -1.60598868E+004  3.76189454E+000   1.22874336E-006     206.90  <-- SCF
      9  -1.60598868E+004  3.76186827E+000  -5.64028365E-007     220.27  <-- SCF
------------------------------------------------------------------------ <-- SCF
 Perturbation    1 (of    2): Ca    1 X at q=( 0.000, 0.000, 0.000):    223.13s
  +---------------- MEMORY AND SCRATCH DISK ESTIMATES PER NODE -----------------+
  |                                                     Memory          Disk    |
  | Model and support data                              451.8 MB         0.0 MB |
  | Finite displacement phonon requirements             141.1 MB         0.0 MB |
  |                                               ----------------------------- |
  | Approx. total storage required per node             592.9 MB         0.0 MB |
  |                                                                             |
  | Requirements will fluctuate during execution and may exceed these estimates |
  +-----------------------------------------------------------------------------+
 Perturbation    2 (of    2): Ca    2 X at q=( 0.000, 0.000, 0.000):    365.30s
 
 ==============================================================================
 +                           Vibrational Frequencies                          +
 +                           -----------------------                          +
 +                                                                            +
 + Performing frequency calculation at  79 wavevectors (q-pts)                +
 + ========================================================================== +
 +                                                                            +
 + -------------------------------------------------------------------------- +
 +  q-pt=    1 (  0.000000  0.000000  0.000000)     0.0126582278              +
 + -------------------------------------------------------------------------- +
 +  Acoustic sum rule correction <  14.522628 cm-1 applied                    +
 +     N      Frequency irrep.              ir active            raman active + 
 +                (cm-1)                                                      + 
 +                                                                            +
 +     1     -79.280520   a                     Y                       N     + 
 +     2     -79.280520   a                     Y                       N     + 
 +     3     -79.280520   a                     Y                       N     + 
 +     4      -0.022339   a                     N                       N     + 
 +     5      -0.022339   a                     N                       N     + 
 +     6      -0.022339   a                     N                       N     + 
 + .......................................................................... +
 +        Character table from group theory analysis of eigenvectors          +
 +                           Point Group =  32, Oh                            +
 + .......................................................................... +
 +  Rep  Mul |    E  2'   3  2"   4   I m_v  -3 m_v  -4                       +
 +           | ----------------------------------------                       +
 + a T1u   2 |    3  -1   0  -1   1  -3   1   0   1  -1                       +
 + -------------------------------------------------------------------------- +
 +  q-pt=    2 ( -0.038462  0.038462  0.038462)     0.0126582278              +
 + -------------------------------------------------------------------------- +
 +  Acoustic sum rule correction <   4.324586 cm-1 applied                    +
 +     N      Frequency irrep.                                                + 
 +                (cm-1)                                                      + 
 +                                                                            +
 +     1     -83.610666   a                                                   + 
 +     2     -82.991764   b                                                   + 
 +     3     -82.991764   b                                                   + 
 +     4     -28.407760   b                                                   + 
 +     5     -28.407760   b                                                   + 
 +     6     -26.530931   a                                                   + 
 + .......................................................................... +
 +        Character table from group theory analysis of eigenvectors          +
 +                           Point Group =  32, Oh                            +
 + .......................................................................... +
 +  Rep  Mul |    E   3   m                                                   +
 +           | ------------                                                   +
 + a       2 |    1   1   1                                                   +
 + b       2 |    2  -1   0                                                   +
 + -------------------------------------------------------------------------- +
 +  q-pt=    3 ( -0.076923  0.076923  0.076923)     0.0126582278              +
 + -------------------------------------------------------------------------- +
 +  Acoustic sum rule correction <   2.053982 cm-1 applied                    +
 +     N      Frequency irrep.                                                + 
 +                (cm-1)                                                      + 
 +                                                                            +
 +     1     -94.680444   a                                                   + 
 +     2     -92.561173   b                                                   + 
 +     3     -92.561173   b                                                   + 
 +     4     -55.458144   b                                                   + 
 +     5     -55.458144   b                                                   + 
 +     6     -51.757029   a                                                   + 
 + .......................................................................... +
 +        Character table from group theory analysis of eigenvectors          +
 +                           Point Group =  32, Oh                            +
 + .......................................................................... +
 +  Rep  Mul |    E   3   m                                                   +
 +           | ------------                                                   +
 + a       2 |    1   1   1                                                   +
 + b       2 |    2  -1   0                                                   +
 + -------------------------------------------------------------------------- +
 +  q-pt=    4 ( -0.115385  0.115385  0.115385)     0.0126582278              +
 + -------------------------------------------------------------------------- +
 +  Acoustic sum rule correction <   1.385010 cm-1 applied                    +
 +     N      Frequency irrep.                                                + 
 +                (cm-1)                                                      + 
 +                                                                            +
 +     1    -108.704580   a                                                   + 
 +     2    -104.790244   b                                                   + 
 +     3    -104.790244   b                                                   + 
 +     4     -79.920035   b                                                   + 
 +     5     -79.920035   b                                                   + 
 +     6     -74.508532   a                                                   + 
 + .......................................................................... +
 +        Character table from group theory analysis of eigenvectors          +
 +                           Point Group =  32, Oh                            +
 + .......................................................................... +
 +  Rep  Mul |    E   3   m                                                   +
 +           | ------------                                                   +
 + a       2 |    1   1   1                                                   +
 + b       2 |    2  -1   0                                                   +
 + -------------------------------------------------------------------------- +
 +  q-pt=    5 ( -0.153846  0.153846  0.153846)     0.0126582278              +
 + -------------------------------------------------------------------------- +
 +  Acoustic sum rule correction <   1.066314 cm-1 applied                    +
 +     N      Frequency irrep.                                                + 
 +                (cm-1)                                                      + 
 +                                                                            +
 +     1    -122.520625   a                                                   + 
 +     2    -116.889012   b                                                   + 
 +     3    -116.889012   b                                                   + 
 +     4    -100.795533   b                                                   + 
 +     5    -100.795533   b                                                   + 
 +     6     -93.869468   a                                                   + 
 + .......................................................................... +
 +        Character table from group theory analysis of eigenvectors          +
 +                           Point Group =  32, Oh                            +
 + .......................................................................... +
 +  Rep  Mul |    E   3   m                                                   +
 +           | ------------                                                   +
 + a       2 |    1   1   1                                                   +
 + b       2 |    2  -1   0                                                   +
 + -------------------------------------------------------------------------- +
 +  q-pt=    6 ( -0.192308  0.192308  0.192308)     0.0126582278              +
 + -------------------------------------------------------------------------- +
 +  Acoustic sum rule correction <   0.883212 cm-1 applied                    +
 +     N      Frequency irrep.                                                + 
 +                (cm-1)                                                      + 
 +                                                                            +
 +     1    -134.153995   a                                                   + 
 +     2    -127.113573   b                                                   + 
 +     3    -127.113573   b                                                   + 
 +     4    -117.382508   b                                                   + 
 +     5    -117.382508   b                                                   + 
 +     6    -109.266735   a                                                   + 
 + .......................................................................... +
 +        Character table from group theory analysis of eigenvectors          +
 +                           Point Group =  32, Oh                            +
 + .......................................................................... +
 +  Rep  Mul |    E   3   m                                                   +
 +           | ------------                                                   +
 + a       2 |    1   1   1                                                   +
 + b       2 |    2  -1   0                                                   +
 + -------------------------------------------------------------------------- +
 +  q-pt=    7 ( -0.230769  0.230769  0.230769)     0.0126582278              +
 + -------------------------------------------------------------------------- +
 +  Acoustic sum rule correction <   0.766321 cm-1 applied                    +
 +     N      Frequency irrep.                                                + 
 +                (cm-1)                                                      + 
 +                                                                            +
 +     1    -142.594047   a                                                   + 
 +     2    -134.749574   b                                                   + 
 +     3    -134.749574   b                                                   + 
 +     4    -129.231623   b                                                   + 
 +     5    -129.231623   b                                                   + 
 +     6    -120.520528   a                                                   + 
 + .......................................................................... +
 +        Character table from group theory analysis of eigenvectors          +
 +                           Point Group =  32, Oh                            +
 + .......................................................................... +
 +  Rep  Mul |    E   3   m                                                   +
 +           | ------------                                                   +
 + a       2 |    1   1   1                                                   +
 + b       2 |    2  -1   0                                                   +
 + -------------------------------------------------------------------------- +
 +  q-pt=    8 ( -0.269231  0.269231  0.269231)     0.0126582278              +
 + -------------------------------------------------------------------------- +
 +  Acoustic sum rule correction <   0.685681 cm-1 applied                    +
 +     N      Frequency irrep.                                                + 
 +                (cm-1)                                                      + 
 +                                                                            +
 +     1    -147.541778   a                                                   + 
 +     2    -140.077205   b                                                   + 
 +     3    -140.077205   b                                                   + 
 +     4    -135.989138   b                                                   + 
 +     5    -135.989138   b                                                   + 
 +     6    -127.851838   a                                                   + 
 + .......................................................................... +
 +        Character table from group theory analysis of eigenvectors          +
 +                           Point Group =  32, Oh                            +
 + .......................................................................... +
 +  Rep  Mul |    E   3   m                                                   +
 +           | ------------                                                   +
 + a       2 |    1   1   1                                                   +
 + b       2 |    2  -1   0                                                   +
 + -------------------------------------------------------------------------- +
 +  q-pt=    9 ( -0.307692  0.307692  0.307692)     0.0126582278              +
 + -------------------------------------------------------------------------- +
 +  Acoustic sum rule correction <   0.625488 cm-1 applied                    +
 +     N      Frequency irrep.                                                + 
 +                (cm-1)                                                      + 
 +                                                                            +
 +     1    -149.228791   a                                                   + 
 +     2    -143.240824   b                                                   + 
 +     3    -143.240824   b                                                   + 
 +     4    -138.328423   b                                                   + 
 +     5    -138.328423   b                                                   + 
 +     6    -131.846329   a                                                   + 
 + .......................................................................... +
 +        Character table from group theory analysis of eigenvectors          +
 +                           Point Group =  32, Oh                            +
 + .......................................................................... +
 +  Rep  Mul |    E   3   m                                                   +
 +           | ------------                                                   +
 + a       2 |    1   1   1                                                   +
 + b       2 |    2  -1   0                                                   +
 + -------------------------------------------------------------------------- +
 +  q-pt=   10 ( -0.346154  0.346154  0.346154)     0.0126582278              +
 + -------------------------------------------------------------------------- +
 +  Acoustic sum rule correction <   0.575864 cm-1 applied                    +
 +     N      Frequency irrep.                                                + 
 +                (cm-1)                                                      + 
 +                                                                            +
 +     1    -148.273936   a                                                   + 
 +     2    -143.912766   b                                                   + 
 +     3    -143.912766   b                                                   + 
 +     4    -138.069726   b                                                   + 
 +     5    -138.069726   b                                                   + 
 +     6    -133.375310   a                                                   + 
 + .......................................................................... +
 +        Character table from group theory analysis of eigenvectors          +
 +                           Point Group =  32, Oh                            +
 + .......................................................................... +
 +  Rep  Mul |    E   3   m                                                   +
 +           | ------------                                                   +
 + a       2 |    1   1   1                                                   +
 + b       2 |    2  -1   0                                                   +
 + -------------------------------------------------------------------------- +
 +  q-pt=   11 ( -0.384615  0.384615  0.384615)     0.0126582278              +
 + -------------------------------------------------------------------------- +
 +  Acoustic sum rule correction <   0.529749 cm-1 applied                    +
 +     N      Frequency irrep.                                                + 
 +                (cm-1)                                                      + 
 +                                                                            +
 +     1    -145.552542   a                                                   + 
 +     2    -142.635364   b                                                   + 
 +     3    -142.635364   b                                                   + 
 +     4    -136.586151   b                                                   + 
 +     5    -136.586151   b                                                   + 
 +     6    -133.473148   a                                                   + 
 + .......................................................................... +
 +        Character table from group theory analysis of eigenvectors          +
 +                           Point Group =  32, Oh                            +
 + .......................................................................... +
 +  Rep  Mul |    E   3   m                                                   +
 +           | ------------                                                   +
 + a       2 |    1   1   1                                                   +
 + b       2 |    2  -1   0                                                   +
 + -------------------------------------------------------------------------- +
 +  q-pt=   12 ( -0.423077  0.423077  0.423077)     0.0126582278              +
 + -------------------------------------------------------------------------- +
 +  Acoustic sum rule correction <   0.481821 cm-1 applied                    +
 +     N      Frequency irrep.                                                + 
 +                (cm-1)                                                      + 
 +                                                                            +
 +     1    -142.072862   a                                                   + 
 +     2    -140.397711   b                                                   + 
 +     3    -140.397711   b                                                   + 
 +     4    -134.930071   b                                                   + 
 +     5    -134.930071   b                                                   + 
 +     6    -133.165097   a                                                   + 
 + .......................................................................... +
 +        Character table from group theory analysis of eigenvectors          +
 +                           Point Group =  32, Oh                            +
 + .......................................................................... +
 +  Rep  Mul |    E   3   m                                                   +
 +           | ------------                                                   +
 + a       2 |    1   1   1                                                   +
 + b       2 |    2  -1   0                                                   +
 + -------------------------------------------------------------------------- +
 +  q-pt=   13 ( -0.461538  0.461538  0.461538)     0.0126582278              +
 + -------------------------------------------------------------------------- +
 +  Acoustic sum rule correction <   0.429009 cm-1 applied                    +
 +     N      Frequency irrep.                                                + 
 +                (cm-1)                                                      + 
 +                                                                            +
 +     1    -138.900426   a                                                   + 
 +     2    -138.299192   b                                                   + 
 +     3    -138.299192   b                                                   + 
 +     4    -133.832762   b                                                   + 
 +     5    -133.832762   b                                                   + 
 +     6    -133.208658   a                                                   + 
 + .......................................................................... +
 +        Character table from group theory analysis of eigenvectors          +
 +                           Point Group =  32, Oh                            +
 + .......................................................................... +
 +  Rep  Mul |    E   3   m                                                   +
 +           | ------------                                                   +
 + a       2 |    1   1   1                                                   +
 + b       2 |    2  -1   0                                                   +
 + -------------------------------------------------------------------------- +
 +  q-pt=   14 ( -0.500000  0.500000  0.500000)     0.0126582278              +
 + -------------------------------------------------------------------------- +
 +  Acoustic sum rule correction <   0.391309 cm-1 applied                    +
 +     N      Frequency irrep.                                                + 
 +                (cm-1)                                                      + 
 +                                                                            +
 +     1    -137.411614   a                                                   + 
 +     2    -137.411614   a                                                   + 
 +     3    -137.411614   a                                                   + 
 +     4    -133.501525   b                                                   + 
 +     5    -133.501525   b                                                   + 
 +     6    -133.501525   b                                                   + 
 + .......................................................................... +
 +        Character table from group theory analysis of eigenvectors          +
 +                           Point Group =  32, Oh                            +
 + .......................................................................... +
 +  Rep  Mul |    E   2   3   2   4   I   m  -3   m  -4                       +
 +           | ----------------------------------------                       +
 + a       1 |    3  -1   0  -1   1  -3   1   0   1  -1                       +
 + b       1 |    3  -1   0   1  -1   3  -1   0   1  -1                       +
 + -------------------------------------------------------------------------- +
 +  q-pt=   15 ( -0.454545  0.454545  0.500000)     0.0126582278              +
 + -------------------------------------------------------------------------- +
 +  Acoustic sum rule correction <   0.393356 cm-1 applied                    +
 +     N      Frequency irrep.                                                + 
 +                (cm-1)                                                      + 
 +                                                                            +
 +     1    -139.077681   a                                                   + 
 +     2    -138.502365   b                                                   + 
 +     3    -137.731631   c                                                   + 
 +     4    -133.809551   d                                                   + 
 +     5    -133.801317   b                                                   + 
 +     6    -133.217667   a                                                   + 
 + .......................................................................... +
 +        Character table from group theory analysis of eigenvectors          +
 +                           Point Group =  32, Oh                            +
 + .......................................................................... +
 +  Rep  Mul |    E   2   m   m                                               +
 +           | ----------------                                               +
 + a       2 |    1  -1  -1   1                                               +
 + b       2 |    1   1   1   1                                               +
 + c       1 |    1  -1   1  -1                                               +
 + d       1 |    1   1  -1  -1                                               +
 + -------------------------------------------------------------------------- +
 +  q-pt=   16 ( -0.409091  0.409091  0.500000)     0.0126582278              +
 + -------------------------------------------------------------------------- +
 +  Acoustic sum rule correction <   0.394087 cm-1 applied                    +
 +     N      Frequency irrep.                                                + 
 +                (cm-1)                                                      + 
 +                                                                            +
 +     1    -142.808630   a                                                   + 
 +     2    -141.386487   b                                                   + 
 +     3    -138.563286   c                                                   + 
 +     4    -134.689021   b                                                   + 
 +     5    -134.606235   d                                                   + 
 +     6    -133.233363   a                                                   + 
 + .......................................................................... +
 +        Character table from group theory analysis of eigenvectors          +
 +                           Point Group =  32, Oh                            +
 + .......................................................................... +
 +  Rep  Mul |    E   2   m   m                                               +
 +           | ----------------                                               +
 + a       2 |    1  -1  -1   1                                               +
 + b       2 |    1   1   1   1                                               +
 + c       1 |    1  -1   1  -1                                               +
 + d       1 |    1   1  -1  -1                                               +
 + -------------------------------------------------------------------------- +
 +  q-pt=   17 ( -0.363636  0.363636  0.500000)     0.0126582278              +
 + -------------------------------------------------------------------------- +
 +  Acoustic sum rule correction <   0.393015 cm-1 applied                    +
 +     N      Frequency irrep.                                                + 
 +                (cm-1)                                                      + 
 +                                                                            +
 +     1    -147.371506   a                                                   + 
 +     2    -145.272766   b                                                   + 
 +     3    -139.569410   c                                                   + 
 +     4    -135.916159   b                                                   + 
 +     5    -135.557239   d                                                   + 
 +     6    -133.740904   a                                                   + 
 + .......................................................................... +
 +        Character table from group theory analysis of eigenvectors          +
 +                           Point Group =  32, Oh                            +
 + .......................................................................... +
 +  Rep  Mul |    E   2   m   m                                               +
 +           | ----------------                                               +
 + a       2 |    1  -1  -1   1                                               +
 + b       2 |    1   1   1   1                                               +
 + c       1 |    1  -1   1  -1                                               +
 + d       1 |    1   1  -1  -1                                               +
 + -------------------------------------------------------------------------- +
 +  q-pt=   18 ( -0.318182  0.318182  0.500000)     0.0126582278              +
 + -------------------------------------------------------------------------- +
 +  Acoustic sum rule correction <   0.391826 cm-1 applied                    +
 +     N      Frequency irrep.                                                + 
 +                (cm-1)                                                      + 
 +                                                                            +
 +     1    -151.904351   a                                                   + 
 +     2    -149.304197   b                                                   + 
 +     3    -140.325156   c                                                   + 
 +     4    -137.041466   b                                                   + 
 +     5    -136.241865   d                                                   + 
 +     6    -134.301973   a                                                   + 
 + .......................................................................... +
 +        Character table from group theory analysis of eigenvectors          +
 +                           Point Group =  32, Oh                            +
 + .......................................................................... +
 +  Rep  Mul |    E   2   m   m                                               +
 +           | ----------------                                               +
 + a       2 |    1  -1  -1   1                                               +
 + b       2 |    1   1   1   1                                               +
 + c       1 |    1  -1   1  -1                                               +
 + d       1 |    1   1  -1  -1                                               +
 + -------------------------------------------------------------------------- +
 +  q-pt=   19 ( -0.272727  0.272727  0.500000)     0.0126582278              +
 + -------------------------------------------------------------------------- +
 +  Acoustic sum rule correction <   0.391826 cm-1 applied                    +
 +     N      Frequency irrep.                                                + 
 +                (cm-1)                                                      + 
 +                                                                            +
 +     1    -155.704595   a                                                   + 
 +     2    -152.736839   b                                                   + 
 +     3    -140.461015   c                                                   + 
 +     4    -137.659281   b                                                   + 
 +     5    -136.295392   d                                                   + 
 +     6    -134.467750   a                                                   + 
 + .......................................................................... +
 +        Character table from group theory analysis of eigenvectors          +
 +                           Point Group =  32, Oh                            +
 + .......................................................................... +
 +  Rep  Mul |    E   2   m   m                                               +
 +           | ----------------                                               +
 + a       2 |    1  -1  -1   1                                               +
 + b       2 |    1   1   1   1                                               +
 + c       1 |    1  -1   1  -1                                               +
 + d       1 |    1   1  -1  -1                                               +
 + -------------------------------------------------------------------------- +
 +  q-pt=   20 ( -0.227273  0.227273  0.500000)     0.0126582278              +
 + -------------------------------------------------------------------------- +
 +  Acoustic sum rule correction <   0.393697 cm-1 applied                    +
 +     N      Frequency irrep.                                                + 
 +                (cm-1)                                                      + 
 +                                                                            +
 +     1    -158.329904   a                                                   + 
 +     2    -155.091751   b                                                   + 
 +     3    -139.780920   c                                                   + 
 +     4    -137.540890   b                                                   + 
 +     5    -135.526705   d                                                   + 
 +     6    -133.973673   a                                                   + 
 + .......................................................................... +
 +        Character table from group theory analysis of eigenvectors          +
 +                           Point Group =  32, Oh                            +
 + .......................................................................... +
 +  Rep  Mul |    E   2   m   m                                               +
 +           | ----------------                                               +
 + a       2 |    1  -1  -1   1                                               +
 + b       2 |    1   1   1   1                                               +
 + c       1 |    1  -1   1  -1                                               +
 + d       1 |    1   1  -1  -1                                               +
 + -------------------------------------------------------------------------- +
 +  q-pt=   21 ( -0.181818  0.181818  0.500000)     0.0126582278              +
 + -------------------------------------------------------------------------- +
 +  Acoustic sum rule correction <   0.397452 cm-1 applied                    +
 +     N      Frequency irrep.                                                + 
 +                (cm-1)                                                      + 
 +                                                                            +
 +     1    -159.666726   a                                                   + 
 +     2    -156.228715   b                                                   + 
 +     3    -138.328654   c                                                   + 
 +     4    -136.695249   b                                                   + 
 +     5    -133.984833   d                                                   + 
 +     6    -132.807617   a                                                   + 
 + .......................................................................... +
 +        Character table from group theory analysis of eigenvectors          +
 +                           Point Group =  32, Oh                            +
 + .......................................................................... +
 +  Rep  Mul |    E   2   m   m                                               +
 +           | ----------------                                               +
 + a       2 |    1  -1  -1   1                                               +
 + b       2 |    1   1   1   1                                               +
 + c       1 |    1  -1   1  -1                                               +
 + d       1 |    1   1  -1  -1                                               +
 + -------------------------------------------------------------------------- +
 +  q-pt=   22 ( -0.136364  0.136364  0.500000)     0.0126582278              +
 + -------------------------------------------------------------------------- +
 +  Acoustic sum rule correction <   0.402466 cm-1 applied                    +
 +     N      Frequency irrep.                                                + 
 +                (cm-1)                                                      + 
 +                                                                            +
 +     1    -159.919969   a                                                   + 
 +     2    -156.334788   b                                                   + 
 +     3    -136.391409   c                                                   + 
 +     4    -135.360834   b                                                   + 
 +     5    -131.963259   d                                                   + 
 +     6    -131.201899   a                                                   + 
 + .......................................................................... +
 +        Character table from group theory analysis of eigenvectors          +
 +                           Point Group =  32, Oh                            +
 + .......................................................................... +
 +  Rep  Mul |    E   2   m   m                                               +
 +           | ----------------                                               +
 + a       2 |    1  -1  -1   1                                               +
 + b       2 |    1   1   1   1                                               +
 + c       1 |    1  -1   1  -1                                               +
 + d       1 |    1   1  -1  -1                                               +
 + -------------------------------------------------------------------------- +
 +  q-pt=   23 ( -0.090909  0.090909  0.500000)     0.0126582278              +
 + -------------------------------------------------------------------------- +
 +  Acoustic sum rule correction <   0.407596 cm-1 applied                    +
 +     N      Frequency irrep.                                                + 
 +                (cm-1)                                                      + 
 +                                                                            +
 +     1    -159.526885   a                                                   + 
 +     2    -155.837418   b                                                   + 
 +     3    -134.436450   c                                                   + 
 +     4    -133.934572   b                                                   + 
 +     5    -129.937346   d                                                   + 
 +     6    -129.560896   a                                                   + 
 + .......................................................................... +
 +        Character table from group theory analysis of eigenvectors          +
 +                           Point Group =  32, Oh                            +
 + .......................................................................... +
 +  Rep  Mul |    E   2   m   m                                               +
 +           | ----------------                                               +
 + a       2 |    1  -1  -1   1                                               +
 + b       2 |    1   1   1   1                                               +
 + c       1 |    1  -1   1  -1                                               +
 + d       1 |    1   1  -1  -1                                               +
 + -------------------------------------------------------------------------- +
 +  q-pt=   24 ( -0.045455  0.045455  0.500000)     0.0126582278              +
 + -------------------------------------------------------------------------- +
 +  Acoustic sum rule correction <   0.411459 cm-1 applied                    +
 +     N      Frequency irrep.                                                + 
 +                (cm-1)                                                      + 
 +                                                                            +
 +     1    -159.007315   a                                                   + 
 +     2    -155.253901   b                                                   + 
 +     3    -132.985069   c                                                   + 
 +     4    -132.851911   b                                                   + 
 +     5    -128.437817   d                                                   + 
 +     6    -128.337116   a                                                   + 
 + .......................................................................... +
 +        Character table from group theory analysis of eigenvectors          +
 +                           Point Group =  32, Oh                            +
 + .......................................................................... +
 +  Rep  Mul |    E   2   m   m                                               +
 +           | ----------------                                               +
 + a       2 |    1  -1  -1   1                                               +
 + b       2 |    1   1   1   1                                               +
 + c       1 |    1  -1   1  -1                                               +
 + d       1 |    1   1  -1  -1                                               +
 + -------------------------------------------------------------------------- +
 +  q-pt=   25 (  0.000000  0.000000  0.500000)     0.0126582278              +
 + -------------------------------------------------------------------------- +
 +  Acoustic sum rule correction <   0.412898 cm-1 applied                    +
 +     N      Frequency irrep.                                                + 
 +                (cm-1)                                                      + 
 +                                                                            +
 +     1    -158.780506   a                                                   + 
 +     2    -155.005297   b                                                   + 
 +     3    -132.448972   c                                                   + 
 +     4    -132.448972   c                                                   + 
 +     5    -127.884564   d                                                   + 
 +     6    -127.884564   d                                                   + 
 + .......................................................................... +
 +        Character table from group theory analysis of eigenvectors          +
 +                           Point Group =  32, Oh                            +
 + .......................................................................... +
 +  Rep  Mul |    E   2   2   2   4   I   m   m   m  -4                       +
 +           | ----------------------------------------                       +
 + a       1 |    1  -1   1  -1   1  -1   1  -1   1  -1                       +
 + b       1 |    1   1   1   1   1   1   1   1   1   1                       +
 + c       1 |    2   0  -2   0   0  -2   0   2   0   0                       +
 + d       1 |    2   0  -2   0   0   2   0  -2   0   0                       +
 + -------------------------------------------------------------------------- +
 +  q-pt=   26 (  0.000000  0.000000  0.437500)     0.0126582278              +
 + -------------------------------------------------------------------------- +
 +  Acoustic sum rule correction <   0.483878 cm-1 applied                    +
 +     N      Frequency irrep.                                                + 
 +                (cm-1)                                                      + 
 +                                                                            +
 +     1    -156.983563   a                                                   + 
 +     2    -151.523168   a                                                   + 
 +     3    -131.402580   b                                                   + 
 +     4    -131.402580   b                                                   + 
 +     5    -124.818439   b                                                   + 
 +     6    -124.818439   b                                                   + 
 + .......................................................................... +
 +        Character table from group theory analysis of eigenvectors          +
 +                           Point Group =  32, Oh                            +
 + .......................................................................... +
 +  Rep  Mul |    E   2   4   m   m                                           +
 +           | --------------------                                           +
 + a       2 |    1   1   1   1   1                                           +
 + b       2 |    2  -2   0   0   0                                           +
 + -------------------------------------------------------------------------- +
 +  q-pt=   27 (  0.000000  0.000000  0.375000)     0.0126582278              +
 + -------------------------------------------------------------------------- +
 +  Acoustic sum rule correction <   0.612897 cm-1 applied                    +
 +     N      Frequency irrep.                                                + 
 +                (cm-1)                                                      + 
 +                                                                            +
 +     1    -150.963680   a                                                   + 
 +     2    -141.977505   a                                                   + 
 +     3    -127.450487   b                                                   + 
 +     4    -127.450487   b                                                   + 
 +     5    -116.661528   b                                                   + 
 +     6    -116.661528   b                                                   + 
 + .......................................................................... +
 +        Character table from group theory analysis of eigenvectors          +
 +                           Point Group =  32, Oh                            +
 + .......................................................................... +
 +  Rep  Mul |    E   2   4   m   m                                           +
 +           | --------------------                                           +
 + a       2 |    1   1   1   1   1                                           +
 + b       2 |    2  -2   0   0   0                                           +
 + -------------------------------------------------------------------------- +
 +  q-pt=   28 (  0.000000  0.000000  0.312500)     0.0126582278              +
 + -------------------------------------------------------------------------- +
 +  Acoustic sum rule correction <   0.781700 cm-1 applied                    +
 +     N      Frequency irrep.                                                + 
 +                (cm-1)                                                      + 
 +                                                                            +
 +     1    -140.705060   a                                                   + 
 +     2    -127.209808   a                                                   + 
 +     3    -120.396950   b                                                   + 
 +     4    -120.396950   b                                                   + 
 +     5    -104.303204   b                                                   + 
 +     6    -104.303204   b                                                   + 
 + .......................................................................... +
 +        Character table from group theory analysis of eigenvectors          +
 +                           Point Group =  32, Oh                            +
 + .......................................................................... +
 +  Rep  Mul |    E   2   4   m   m                                           +
 +           | --------------------                                           +
 + a       2 |    1   1   1   1   1                                           +
 + b       2 |    2  -2   0   0   0                                           +
 + -------------------------------------------------------------------------- +
 +  q-pt=   29 (  0.000000  0.000000  0.250000)     0.0126582278              +
 + -------------------------------------------------------------------------- +
 +  Acoustic sum rule correction <   1.022398 cm-1 applied                    +
 +     N      Frequency irrep.                                                + 
 +                (cm-1)                                                      + 
 +                                                                            +
 +     1    -127.028445   a                                                   + 
 +     2    -110.910888   b                                                   + 
 +     3    -110.910888   b                                                   + 
 +     4    -107.821243   a                                                   + 
 +     5     -88.261382   b                                                   + 
 +     6     -88.261382   b                                                   + 
 + .......................................................................... +
 +        Character table from group theory analysis of eigenvectors          +
 +                           Point Group =  32, Oh                            +
 + .......................................................................... +
 +  Rep  Mul |    E   2   4   m   m                                           +
 +           | --------------------                                           +
 + a       2 |    1   1   1   1   1                                           +
 + b       2 |    2  -2   0   0   0                                           +
 + -------------------------------------------------------------------------- +
 +  q-pt=   30 (  0.000000  0.000000  0.187500)     0.0126582278              +
 + -------------------------------------------------------------------------- +
 +  Acoustic sum rule correction <   1.412199 cm-1 applied                    +
 +     N      Frequency irrep.                                                + 
 +                (cm-1)                                                      + 
 +                                                                            +
 +     1    -111.359170   a                                                   + 
 +     2    -100.166993   b                                                   + 
 +     3    -100.166993   b                                                   + 
 +     4     -84.511410   a                                                   + 
 +     5     -69.098356   b                                                   + 
 +     6     -69.098356   b                                                   + 
 + .......................................................................... +
 +        Character table from group theory analysis of eigenvectors          +
 +                           Point Group =  32, Oh                            +
 + .......................................................................... +
 +  Rep  Mul |    E   2   4   m   m                                           +
 +           | --------------------                                           +
 + a       2 |    1   1   1   1   1                                           +
 + b       2 |    2  -2   0   0   0                                           +
 + -------------------------------------------------------------------------- +
 +  q-pt=   31 (  0.000000  0.000000  0.125000)     0.0126582278              +
 + -------------------------------------------------------------------------- +
 +  Acoustic sum rule correction <   2.191232 cm-1 applied                    +
 +     N      Frequency irrep.                                                + 
 +                (cm-1)                                                      + 
 +                                                                            +
 +     1     -95.905309   a                                                   + 
 +     2     -89.858558   b                                                   + 
 +     3     -89.858558   b                                                   + 
 +     4     -58.119012   a                                                   + 
 +     5     -47.481512   b                                                   + 
 +     6     -47.481512   b                                                   + 
 + .......................................................................... +
 +        Character table from group theory analysis of eigenvectors          +
 +                           Point Group =  32, Oh                            +
 + .......................................................................... +
 +  Rep  Mul |    E   2   4   m   m                                           +
 +           | --------------------                                           +
 + a       2 |    1   1   1   1   1                                           +
 + b       2 |    2  -2   0   0   0                                           +
 + -------------------------------------------------------------------------- +
[...]
 +     4     -74.263678   b                                                   + 
 +     5     269.416354   a                                                   + 
 +     6     279.228768   a                                                   + 
 + .......................................................................... +
 +        Character table from group theory analysis of eigenvectors          +
 +                           Point Group =  32, Oh                            +
 + .......................................................................... +
 +  Rep  Mul |    E   m                                                       +
 +           | --------                                                       +
 + a       4 |    1   1                                                       +
 + b       2 |    1  -1                                                       +
 + -------------------------------------------------------------------------- +
 +  q-pt=  109 (  0.100000  0.100000  0.400000)     0.0088495575              +
 + -------------------------------------------------------------------------- +
 +  Acoustic sum rule correction <   9.892521 cm-1 applied                    +
 +     N      Frequency irrep.                                                + 
 +                (cm-1)                                                      + 
 +                                                                            +
 +     1    -142.051774   a                                                   + 
 +     2    -112.702702   a                                                   + 
 +     3     -93.963771   b                                                   + 
 +     4     -92.965586   b                                                   + 
 +     5     280.828528   a                                                   + 
 +     6     288.176320   a                                                   + 
 + .......................................................................... +
 +        Character table from group theory analysis of eigenvectors          +
 +                           Point Group =  32, Oh                            +
 + .......................................................................... +
 +  Rep  Mul |    E   m                                                       +
 +           | --------                                                       +
 + a       4 |    1   1                                                       +
 + b       2 |    1  -1                                                       +
 + -------------------------------------------------------------------------- +
 +  q-pt=  110 (  0.075000  0.075000  0.425000)     0.0088495575              +
 + -------------------------------------------------------------------------- +
 +  Acoustic sum rule correction <   7.583390 cm-1 applied                    +
 +     N      Frequency irrep.                                                + 
 +                (cm-1)                                                      + 
 +                                                                            +
 +     1    -127.508171   a                                                   + 
 +     2    -107.551050   a                                                   + 
 +     3    -100.527252   b                                                   + 
 +     4     -93.347588   b                                                   + 
 +     5     290.984786   a                                                   + 
 +     6     296.368927   a                                                   + 
 + .......................................................................... +
 +        Character table from group theory analysis of eigenvectors          +
 +                           Point Group =  32, Oh                            +
 + .......................................................................... +
 +  Rep  Mul |    E   m                                                       +
 +           | --------                                                       +
 + a       4 |    1   1                                                       +
 + b       2 |    1  -1                                                       +
 + -------------------------------------------------------------------------- +
 +  q-pt=  111 (  0.050000  0.050000  0.450000)     0.0088495575              +
 + -------------------------------------------------------------------------- +
 +  Acoustic sum rule correction <   7.838323 cm-1 applied                    +
 +     N      Frequency irrep.                                                + 
 +                (cm-1)                                                      + 
 +                                                                            +
 +     1    -113.248943   a                                                   + 
 +     2    -101.316668   b                                                   + 
 +     3    -100.926608   a                                                   + 
 +     4     -92.897152   b                                                   + 
 +     5     299.176839   a                                                   + 
 +     6     302.777633   a                                                   + 
 + .......................................................................... +
 +        Character table from group theory analysis of eigenvectors          +
 +                           Point Group =  32, Oh                            +
 + .......................................................................... +
 +  Rep  Mul |    E   m                                                       +
 +           | --------                                                       +
 + a       4 |    1   1                                                       +
 + b       2 |    1  -1                                                       +
 + -------------------------------------------------------------------------- +
 +  q-pt=  112 (  0.025000  0.025000  0.475000)     0.0088495575              +
 + -------------------------------------------------------------------------- +
 +  Acoustic sum rule correction <   9.062411 cm-1 applied                    +
 +     N      Frequency irrep.                                                + 
 +                (cm-1)                                                      + 
 +                                                                            +
 +     1    -101.851372   a                                                   + 
 +     2     -98.929826   b                                                   + 
 +     3     -95.937245   a                                                   + 
 +     4     -93.507762   b                                                   + 
 +     5     304.746203   a                                                   + 
 +     6     306.609494   a                                                   + 
 + .......................................................................... +
 +        Character table from group theory analysis of eigenvectors          +
 +                           Point Group =  32, Oh                            +
 + .......................................................................... +
 +  Rep  Mul |    E   m                                                       +
 +           | --------                                                       +
 + a       4 |    1   1                                                       +
 + b       2 |    1  -1                                                       +
 + -------------------------------------------------------------------------- +
 +  q-pt=  113 (  0.000000  0.000000  0.500000)     0.0088495575              +
 + -------------------------------------------------------------------------- +
 +  Acoustic sum rule correction <  11.196641 cm-1 applied                    +
 +     N      Frequency irrep.                                                + 
 +                (cm-1)                                                      + 
 +                                                                            +
 +     1     -96.176286   a                                                   + 
 +     2     -96.176286   a                                                   + 
 +     3     -95.317799   b                                                   + 
 +     4     -95.317799   b                                                   + 
 +     5     307.041757   c                                                   + 
 +     6     307.558802   d                                                   + 
 + .......................................................................... +
 +        Character table from group theory analysis of eigenvectors          +
 +                           Point Group =  32, Oh                            +
 + .......................................................................... +
 +  Rep  Mul |    E   2   2   2   4   I   m   m   m  -4                       +
 +           | ----------------------------------------                       +
 + a       1 |    2   0  -2   0   0  -2   0   2   0   0                       +
 + b       1 |    2   0  -2   0   0   2   0  -2   0   0                       +
 + c       1 |    1  -1   1  -1   1  -1   1  -1   1  -1                       +
 + d       1 |    1   1   1   1   1   1   1   1   1   1                       +
 ==============================================================================

  =====================================================================
                             Thermodynamics
                             ==============

            Zero-point energy =         0.045244  eV
 ------------------------------------------------------------------------------ 
       T(K)        E(eV)           F(eV)         S(J/mol/K)      Cv(J/mol/K)   
 ------------------------------------------------------------------------------ 
       0.0        0.045244        0.045244           0.000           0.000     
       3.0        0.045244        0.045243           0.017           0.084     
       5.9        0.045254        0.045240           0.225           0.637     
       8.9        0.045285        0.045228           0.619           1.353     
      11.9        0.045337        0.045201           1.099           1.997     
      14.9        0.045407        0.045160           1.603           2.520     
      17.8        0.045491        0.045103           2.102           2.954     
      20.8        0.045588        0.045031           2.586           3.335     
      23.8        0.045696        0.044944           3.055           3.689     
      26.7        0.045815        0.044843           3.509           4.031     
      29.7        0.045944        0.044728           3.952           4.373     
      32.7        0.046084        0.044599           4.385           4.719     
      35.6        0.046235        0.044458           4.810           5.075     
      38.6        0.046397        0.044303           5.231           5.443     
      41.6        0.046570        0.044136           5.648           5.825     
      44.6        0.046756        0.043955           6.064           6.221     
      47.5        0.046953        0.043762           6.478           6.632     
      50.5        0.047164        0.043557           6.893           7.058     
      53.5        0.047388        0.043338           7.309           7.498     
      56.4        0.047626        0.043107           7.726           7.950     
      59.4        0.047878        0.042862           8.146           8.414     
      62.4        0.048144        0.042605           8.568           8.886     
      65.3        0.048425        0.042335           8.992           9.366     
      68.3        0.048721        0.042051           9.419           9.851     
      71.3        0.049031        0.041755           9.849          10.338     
      74.3        0.049357        0.041445          10.281          10.826     
      77.2        0.049698        0.041122          10.715          11.313     
      80.2        0.050054        0.040785          11.151          11.796     
      83.2        0.050424        0.040435          11.588          12.276     
      86.1        0.050809        0.040072          12.027          12.749     
      89.1        0.051209        0.039695          12.467          13.215     
      92.1        0.051623        0.039304          12.908          13.673     
      95.0        0.052051        0.038900          13.349          14.121     
      98.0        0.052492        0.038482          13.791          14.559     
     101.0        0.052947        0.038051          14.232          14.987     
     104.0        0.053415        0.037606          14.672          15.405     
     106.9        0.053895        0.037147          15.112          15.810     
     109.9        0.054388        0.036676          15.551          16.205     
     112.9        0.054893        0.036190          15.988          16.587     
     115.8        0.055409        0.035691          16.423          16.959     
     118.8        0.055937        0.035179          16.857          17.318     
     121.8        0.056476        0.034653          17.289          17.666     
     124.8        0.057025        0.034114          17.719          18.003     
     127.7        0.057584        0.033562          18.147          18.329     
     130.7        0.058153        0.032997          18.572          18.643     
     133.7        0.058732        0.032419          18.994          18.947     
     136.6        0.059319        0.031828          19.414          19.241     
     139.6        0.059916        0.031224          19.830          19.524     
     142.6        0.060521        0.030607          20.244          19.798     
     145.5        0.061135        0.029977          20.655          20.062     
     148.5        0.061757        0.029335          21.063          20.316     
     151.5        0.062386        0.028680          21.468          20.562     
     154.5        0.063022        0.028013          21.870          20.799     
     157.4        0.063666        0.027334          22.268          21.028     
     160.4        0.064317        0.026642          22.663          21.249     
     163.4        0.064975        0.025939          23.055          21.462     
     166.3        0.065638        0.025223          23.443          21.667     
     169.3        0.066309        0.024495          23.829          21.866     
     172.3        0.066985        0.023756          24.211          22.057     
     175.2        0.067667        0.023005          24.589          22.242     
     178.2        0.068354        0.022242          24.965          22.420     
     181.2        0.069047        0.021468          25.337          22.592     
     184.2        0.069745        0.020682          25.705          22.759     
     187.1        0.070448        0.019885          26.071          22.919     
     190.1        0.071156        0.019077          26.433          23.075     
     193.1        0.071869        0.018257          26.792          23.225     
     196.0        0.072586        0.017427          27.148          23.369     
     199.0        0.073308        0.016586          27.500          23.510     
     202.0        0.074033        0.015734          27.849          23.645     
     205.0        0.074763        0.014871          28.196          23.776     
     207.9        0.075497        0.013998          28.539          23.903     
     210.9        0.076235        0.013114          28.878          24.025     
     213.9        0.076976        0.012220          29.215          24.144     
     216.8        0.077721        0.011316          29.549          24.258     
     219.8        0.078470        0.010401          29.880          24.369     
     222.8        0.079222        0.009476          30.208          24.477     
     225.7        0.079977        0.008541          30.533          24.581     
     228.7        0.080735        0.007596          30.855          24.682     
     231.7        0.081497        0.006641          31.174          24.780     
     234.7        0.082261        0.005677          31.490          24.875     
     237.6        0.083028        0.004702          31.804          24.967     
     240.6        0.083798        0.003719          32.114          25.056     
     243.6        0.084571        0.002725          32.422          25.142     
     246.5        0.085346        0.001722          32.727          25.226     
     249.5        0.086124        0.000710          33.030          25.308     
     252.5        0.086904       -0.000311          33.330          25.387     
     255.4        0.087687       -0.001342          33.627          25.463     
     258.4        0.088472       -0.002382          33.922          25.538     
     261.4        0.089259       -0.003430          34.215          25.610     
     264.4        0.090049       -0.004488          34.504          25.680     
     267.3        0.090840       -0.005555          34.792          25.749     
     270.3        0.091634       -0.006630          35.077          25.815     
     273.3        0.092430       -0.007715          35.359          25.879     
     276.2        0.093227       -0.008807          35.639          25.942     
     279.2        0.094027       -0.009909          35.917          26.003     
     282.2        0.094828       -0.011019          36.192          26.062     
     285.1        0.095632       -0.012137          36.466          26.120     
     288.1        0.096437       -0.013264          36.737          26.176     
     291.1        0.097243       -0.014399          37.005          26.231     
     294.1        0.098052       -0.015542          37.272          26.284     
     297.0        0.098862       -0.016694          37.536          26.336     
     300.0        0.099673       -0.017853          37.799          26.386     
 ------------------------------------------------------------------------------ 

 ***************** Symmetrised Forces *****************
 *                                                    *
 *            Cartesian components (eV/A)             *
 * -------------------------------------------------- *
 *                   x            y            z      *
 *                                                    *
 * Ca        1      0.00000      0.00000      0.00000 *
 * Ca        2      0.00000      0.00000      0.00000 *
 *                                                    *
 ******************************************************

 Pseudo atomic calculation performed for Ca 3s2 3p6 4s2

 Converged in 19 iterations to a total energy of -1001.1905 eV

Charge spilling parameter for spin component 1 = 0.14%

     Atomic Populations (Mulliken)
     -----------------------------
Species   Ion     s      p      d      f     Total  Charge (e)
==============================================================
  Ca       1     2.33   5.88   1.79   0.00  10.00     0.00
  Ca       2     2.33   5.88   1.79   0.00  10.00    -0.00
==============================================================

            Bond              Population      Length (A)
============================================================
         Ca 1 -- Ca 2             -0.89        2.58548
============================================================


Writing model to Ca.check

Writing analysis data to Ca.castep_bin
 
 A BibTeX formatted list of references used in this run has been written to 
 Ca.bib
 
Initialisation time =      8.09 s
Calculation time    =    147.85 s
Finalisation time   =      0.53 s
Total time          =    156.47 s
Peak Memory Use     = 295468 kB
