 +-------------------------------------------------+
 |                                                 |
 |      CCC   AA    SSS  TTTTT  EEEEE  PPPP        |
 |     C     A  A  S       T    E      P   P       |
 |     C     AAAA   SS     T    EEE    PPPP        |
 |     C     A  A     S    T    E      P           |
 |      CCC  A  A  SSS     T    EEEEE  P           |
 |                                                 |
 +-------------------------------------------------+
 |                                                 |
 | Welcome to Academic Release CASTEP version 6.11 |
 | Ab Initio Total Energy Program                  |
 |                                                 |
 | Authors:                                        |
 | M. Segall, M. Probert, C. Pickard, P. Hasnip,   |
 | S. Clark, K. Refson, J. R. Yates, M. Payne      |
 |                                                 |
 | Contributors:                                   |
 | P. Lindan, P. Haynes, J. White, V. Milman,      |
 | N. Govind, M. Gibson, P. Tulip, V. Cocula,      |
 | B. Montanari, D. Quigley, M. Glover,            |
 | L. Bernasconi, A. Perlov, M. Plummer,           |
 | E. McNellis, J. Meyer, J. Gale, D. Jochym       |
 | J. Aarons, B. Walker, R. Gillen                 |
 |                                                 |
 | Copyright (c) 2000 - 2012                       |
 |                                                 |
 |     Distributed under the terms of an           |
 |     Agreement between the United Kingdom        |
 |     Car-Parrinello (UKCP) Consortium,           |
 |     Daresbury Laboratory and Accelrys, Inc.     |
 |                                                 |
 | Please cite                                     |
 |                                                 |
 |     "First principles methods using CASTEP"     |
 |                                                 |
 |         Zeitschrift fuer Kristallographie       |
 |           220(5-6) pp. 567-570 (2005)           |
 |                                                 |
 | S. J. Clark, M. D. Segall, C. J. Pickard,       |
 | P. J. Hasnip, M. J. Probert, K. Refson,         |
 | M. C. Payne                                     |
 |                                                 |
 |       in all publications arising from          |
 |              your use of CASTEP                 |
 |                                                 |
 +-------------------------------------------------+


 Compiled for linux_x86_64_gfortran on Tue Jul 23 08:36:46 2013
 from source code version 17dc085fd1b9+ Castep61_branch 2013-03-13
 using intermediate optimisation, default FFTs and default LAPACK and BLAS.


 Atomic calculation performed for Ca: 1s2 2s2 2p6 3s2 3p6 4s2

 Converged in 54 iterations to an ae energy of -18512.579 eV

   ============================================================                
   | Pseudopotential Report - Date of generation 25-03-2015   |                
   ------------------------------------------------------------                
   | Element: Ca Ionic charge: 10.00 Level of theory: PBE     |                
   |                                                          |                
   |               Reference Electronic Structure             |                
   |         Orbital         Occupation         Energy        |                
   |            3s              2.000           -1.731        |                
   |            3p              6.000           -1.029        |                
   |            4s              2.000           -0.138        |                
   |                                                          |                
   |                 Pseudopotential Definition               |                
   |        Beta     l      e      Rc     scheme   norm       |                
   |          1      0   -1.731   2.005     qc      0         |                
   |          2      0   -0.138   2.005     qc      0         |                
   |          3      1   -1.029   2.005     qc      0         |                
   |          4      1    0.250   2.005     qc      0         |                
   |          5      2    0.000   2.005     qc      0         |                
   |          6      2    1.000   2.005     qc      0         |                
   |         loc     3    0.000   1.601     pn      0         |                
   |                                                          |                
   | Augmentation charge Rinner = 1.401                       |                
   | Partial core correction Rc = 1.401                       |                
   ------------------------------------------------------------                
   | "3|1.6|2.0|1.4|7|9|10|30U:40U:31:32U=0U=1.0"             |                
   ------------------------------------------------------------                
   |      Author: Chris J. Pickard, Cambridge University      |                
   ============================================================                

 Pseudo atomic calculation performed for Ca 3s2 3p6 4s2

 Converged in 19 iterations to a total energy of -1001.2130 eV

 Calculation not parallelised.

 ************************************ Title ************************************
 

 ***************************** General Parameters ******************************
  
 output verbosity                               : normal  (1)
 write checkpoint data to                       : Ca.check
 type of calculation                            : Thermodynamics calculation
 stress calculation                             : off
 density difference calculation                 : off
 electron localisation func (ELF) calculation   : off
 Hirshfeld analysis                             : off
 unlimited duration calculation
 timing information                             : on
 memory usage estimate                          : on
 write final potential to formatted file        : off
 write final density to formatted file          : off
 write BibTeX reference list                    : on
  
 output         length unit                     : A
 output           mass unit                     : amu
 output           time unit                     : ps
 output         charge unit                     : e
 output         energy unit                     : eV
 output          force unit                     : eV/A
 output       velocity unit                     : A/ps
 output       pressure unit                     : GPa
 output     inv_length unit                     : 1/A
 output      frequency unit                     : cm-1
 output force constant unit                     : eV/A**2
 output         volume unit                     : A**3
 output   IR intensity unit                     : (D/A)**2/amu
 output         dipole unit                     : D
 output         efield unit                     : eV/A/e
 output        entropy unit                     : J/mol/K
  
 wavefunctions paging                           : none
 data distribution                              : optimal for this architecture
 optimization strategy                          : maximize speed(+++)

 *********************** Exchange-Correlation Parameters ***********************
  
 using functional                               : Perdew Wang (1991)
 Divergence correction                          : off
 DFT+D: Semi-empirical dispersion correction    : off

 ************************* Pseudopotential Parameters **************************
  
 pseudopotential representation                 : reciprocal space
 <beta|phi> representation                      : reciprocal space

 **************************** Basis Set Parameters *****************************
  
 plane wave basis set cut-off                   :   700.0000   eV
 finite basis set correction                    : none

 **************************** Electronic Parameters ****************************
  
 number of  electrons                           :  40.00    
 net charge of system                           :  0.000    
 net spin   of system                           :  0.000    
 number of  up  spins                           :  20.00    
 number of down spins                           :  20.00    
 treating system as non-spin-polarized
 number of bands                                :         24

 ********************* Electronic Minimization Parameters **********************
  
 Method: Treating system as metallic with density mixing treatment of electrons,
         and number of  SD  steps               :          1
         and number of  CG  steps               :          4
  
 total energy / atom convergence tol.           : 0.1000E-04   eV
 eigen-energy convergence tolerance             : 0.1000E-05   eV
 max force / atom convergence tol.              : ignored
 convergence tolerance window                   :          3   cycles
 max. number of SCF cycles                      :         30
 number of fixed-spin iterations                :         10
 smearing scheme                                : Gaussian
 smearing width                                 : 0.4000E-01   eV
 Fermi energy convergence tolerance             : 0.1000E-06   eV
 periodic dipole correction                     : NONE

 ************************** Density Mixing Parameters **************************
  
 density-mixing scheme                          : Broyden
 max. length of mixing history                  :          7
 charge density mixing amplitude                : 0.8000    
 cut-off energy for mixing                      :  700.0       eV

 *********************** Population Analysis Parameters ************************
  
 Population analysis with cutoff                :  3.000       A

 ****************************** Phonon Parameters ******************************
  
 phonon calculation method                      : finite displacement
 finite displacement amplitude                  : 0.5292E-02   A
 fine phonon calculation method                 : supercell
 non-periodic force constant method             : Weighted cumulant sum
 LO/TO splitting term                           : not included
 acoustic phonon sum rule                       : correct D(q) in recip-space
 Born effective charges                         : not calculated
 Raman intensities                              : not calculated
 phonon k-points                                : use reduced set
 phonon DOS                                     : not calculated
 no timed backups

 ************************** Thermodynamics Parameters **************************
 Helmholtz free energy                          : calculated
 Initial temperature                            :  0.000       K
 Final temperature                              :  300.0       K
 Spacing between temperature values             :  3.000       K
 Number of temperature values                   :        102
 band convergence tolerance                     : 0.1000E-05   eV

 *******************************************************************************
  

                           -------------------------------
                                      Unit Cell
                           -------------------------------
        Real Lattice(A)                      Reciprocal Lattice(1/A)
   5.5151340   0.0000000   0.0000000        1.1392625  -0.0000000  -0.0000000
   0.0000000   5.5151340   0.0000000        0.0000000   1.1392625  -0.0000000
   0.0000000   0.0000000   5.5151340        0.0000000   0.0000000   1.1392625

                       Lattice parameters(A)       Cell Angles
                    a =    5.515134          alpha =   90.000000
                    b =    5.515134          beta  =   90.000000
                    c =    5.515134          gamma =   90.000000

                       Current cell volume =  167.752193       A**3

                           -------------------------------
                                     Cell Contents
                           -------------------------------
                         Total number of ions in cell =    4
                      Total number of species in cell =    1
                        Max number of any one species =    4

            xxxxxxxxxxxxxxxxxxxxxxxxxxxxxxxxxxxxxxxxxxxxxxxxxxxxxxxxxxxx
            x  Element    Atom        Fractional coordinates of atoms  x
            x            Number           u          v          w      x
            x----------------------------------------------------------x
            x  Ca           1         0.000000   0.000000   0.000000   x
            x  Ca           2         0.000000   0.500000   0.500000   x
            x  Ca           3         0.500000   0.000000   0.500000   x
            x  Ca           4         0.500000   0.500000   0.000000   x
            xxxxxxxxxxxxxxxxxxxxxxxxxxxxxxxxxxxxxxxxxxxxxxxxxxxxxxxxxxxx


                         No user defined ionic velocities

                           -------------------------------
                                   Details of Species
                           -------------------------------

                               Mass of species in AMU
                                    Ca   40.0780000

                          Electric Quadrupole Moment (Barn)
                                    Ca   -0.0408000 Isotope 43

                          Files used for pseudopotentials:
                                    Ca Pseudopotential generated on-the-fly

                           -------------------------------
                              k-Points For BZ Sampling
                           -------------------------------
                       MP grid size for SCF calculation is  8  8  8
                         Number of kpoints used =          20

             +++++++++++++++++++++++++++++++++++++++++++++++++++++++
             +  Number       Fractional coordinates        Weight  +
             +-----------------------------------------------------+
             +     1  -0.437500  -0.437500  -0.437500   0.0156250  +
             +     2  -0.437500  -0.437500  -0.062500   0.0468750  +
             +     3  -0.437500  -0.187500  -0.312500   0.0937500  +
             +     4  -0.312500  -0.312500  -0.312500   0.0156250  +
             +     5  -0.312500  -0.312500  -0.187500   0.0468750  +
             +     6  -0.312500  -0.312500  -0.062500   0.0468750  +
             +     7  -0.187500  -0.187500  -0.437500   0.0468750  +
             +     8  -0.187500  -0.187500  -0.312500   0.0468750  +
             +     9  -0.187500  -0.187500  -0.187500   0.0156250  +
             +    10  -0.187500  -0.187500  -0.062500   0.0468750  +
             +    11   0.062500  -0.437500  -0.187500   0.0937500  +
             +    12   0.062500  -0.437500  -0.062500   0.0468750  +
             +    13   0.062500  -0.312500  -0.187500   0.0937500  +
             +    14   0.062500  -0.312500  -0.062500   0.0468750  +
             +    15   0.062500  -0.187500  -0.062500   0.0468750  +
             +    16   0.062500   0.062500   0.062500   0.0156250  +
             +    17   0.062500   0.312500  -0.437500   0.0937500  +
             +    18   0.312500  -0.312500  -0.437500   0.0468750  +
             +    19   0.312500   0.437500   0.437500   0.0468750  +
             +    20   0.437500  -0.187500  -0.437500   0.0468750  +
             +++++++++++++++++++++++++++++++++++++++++++++++++++++++

                           -------------------------------
                               Symmetry and Constraints
                           -------------------------------

                      Number of symmetry operations   =          48
                      Number of ionic constraints     =           3
                      Maximum deviation from symmetry = 0.675409E-15     ANG
               Point group of crystal =    32: Oh, m-3m, 4/m -3 2/m
           Set iprint > 1 for details on symmetry rotations/translations

                          Centre of mass is constrained
             Set iprint > 1 for details of linear ionic constraints

                         Number of cell constraints= 5
                         Cell constraints are:  1 1 1 0 0 0

                         External pressure/stress (GPa)
                          0.00000   0.00000   0.00000
                                    0.00000   0.00000
                                              0.00000
  
+---------------- MEMORY AND SCRATCH DISK ESTIMATES PER NODE -----------------+
|                                                     Memory          Disk    |
| Model and support data                              238.8 MB         0.0 MB |
| Electronic energy minimisation requirements         116.3 MB         0.0 MB |
|                                               ----------------------------- |
| Approx. total storage required per node             355.0 MB         0.0 MB |
|                                                                             |
| Requirements will fluctuate during execution and may exceed these estimates |
+-----------------------------------------------------------------------------+
------------------------------------------------------------------------ <-- SCF
SCF loop      Energy           Fermi           Energy gain       Timer   <-- SCF
                               energy          per atom          (sec)   <-- SCF
------------------------------------------------------------------------ <-- SCF
Initial  -3.48302064E+003  0.00000000E+000                        10.98  <-- SCF
      1  -3.93702023E+003  6.60881498E+000   1.13499899E+002      31.87  <-- SCF                              
      2  -4.01187939E+003  4.00393066E+000   1.87147892E+001      45.85  <-- SCF                         
      3  -4.01496802E+003  3.73414587E+000   7.72157674E-001      62.59  <-- SCF                             
      4  -4.01507964E+003  3.74227538E+000   2.79055337E-002      80.02  <-- SCF                             
      5  -4.01509092E+003  3.73683808E+000   2.81866068E-003      98.91  <-- SCF                             
      6  -4.01509192E+003  3.73869800E+000   2.51067897E-004     115.59  <-- SCF                              
      7  -4.01509192E+003  3.73799147E+000  -8.57148584E-007     128.64  <-- SCF                             
      8  -4.01509192E+003  3.73785049E+000   2.81705502E-007     139.54  <-- SCF
------------------------------------------------------------------------ <-- SCF
 
Final energy, E             =  -4015.086391807     eV
Final free energy (E-TS)    =  -4015.091921015     eV
(energies not corrected for finite basis set)
 
NB est. 0K energy (E-0.5TS)      =  -4015.089156411     eV
 

Writing model to Ca.check
                                                                         
              The requested supercell has been generated                 
                                                                         

                           -------------------------------
                                      Unit Cell
                           -------------------------------
        Real Lattice(A)                      Reciprocal Lattice(1/A)
  11.0302680   0.0000000   0.0000000        0.5696312  -0.0000000  -0.0000000
   0.0000000  11.0302680   0.0000000        0.0000000   0.5696312  -0.0000000
   0.0000000   0.0000000  11.0302680        0.0000000   0.0000000   0.5696312

                       Lattice parameters(A)       Cell Angles
                    a =   11.030268          alpha =   90.000000
                    b =   11.030268          beta  =   90.000000
                    c =   11.030268          gamma =   90.000000

                       Current cell volume = 1342.017545       A**3

                           -------------------------------
                                     Cell Contents
                           -------------------------------
                         Total number of ions in cell =   32
                      Total number of species in cell =    1
                        Max number of any one species =   32

            xxxxxxxxxxxxxxxxxxxxxxxxxxxxxxxxxxxxxxxxxxxxxxxxxxxxxxxxxxxx
            x  Element    Atom        Fractional coordinates of atoms  x
            x            Number           u          v          w      x
            x----------------------------------------------------------x
            x  Ca           1         0.000000   0.000000   0.000000   x
            x  Ca           2         0.000000   0.250000   0.250000   x
            x  Ca           3         0.250000   0.000000   0.250000   x
            x  Ca           4         0.250000   0.250000   0.000000   x
            x  Ca           5         0.500000   0.000000   0.000000   x
            x  Ca           6         0.500000   0.250000   0.250000   x
            x  Ca           7         0.750000   0.000000   0.250000   x
            x  Ca           8         0.750000   0.250000   0.000000   x
            x  Ca           9         0.000000   0.500000   0.000000   x
            x  Ca          10         0.000000   0.750000   0.250000   x
            x  Ca          11         0.250000   0.500000   0.250000   x
            x  Ca          12         0.250000   0.750000   0.000000   x
            x  Ca          13         0.500000   0.500000   0.000000   x
            x  Ca          14         0.500000   0.750000   0.250000   x
            x  Ca          15         0.750000   0.500000   0.250000   x
            x  Ca          16         0.750000   0.750000   0.000000   x
            x  Ca          17         0.000000   0.000000   0.500000   x
            x  Ca          18         0.000000   0.250000   0.750000   x
            x  Ca          19         0.250000   0.000000   0.750000   x
            x  Ca          20         0.250000   0.250000   0.500000   x
            x  Ca          21         0.500000   0.000000   0.500000   x
            x  Ca          22         0.500000   0.250000   0.750000   x
            x  Ca          23         0.750000   0.000000   0.750000   x
            x  Ca          24         0.750000   0.250000   0.500000   x
            x  Ca          25         0.000000   0.500000   0.500000   x
            x  Ca          26         0.000000   0.750000   0.750000   x
            x  Ca          27         0.250000   0.500000   0.750000   x
            x  Ca          28         0.250000   0.750000   0.500000   x
            x  Ca          29         0.500000   0.500000   0.500000   x
            x  Ca          30         0.500000   0.750000   0.750000   x
            x  Ca          31         0.750000   0.500000   0.750000   x
            x  Ca          32         0.750000   0.750000   0.500000   x
            xxxxxxxxxxxxxxxxxxxxxxxxxxxxxxxxxxxxxxxxxxxxxxxxxxxxxxxxxxxx


                         No user defined ionic velocities

                           -------------------------------
                                   Details of Species
                           -------------------------------

                               Mass of species in AMU
                                    Ca   40.0780000

                          Electric Quadrupole Moment (Barn)
                                    Ca   -0.0408000 Isotope 43

                          Files used for pseudopotentials:
                                    Ca Pseudopotential generated on-the-fly

                           -------------------------------
                              k-Points For BZ Sampling
                           -------------------------------
                       MP grid size for SCF calculation is  2  2  2
                         Number of kpoints used =           1

             +++++++++++++++++++++++++++++++++++++++++++++++++++++++
             +  Number       Fractional coordinates        Weight  +
             +-----------------------------------------------------+
             +     1  -0.250000  -0.250000  -0.250000   1.0000000  +
             +++++++++++++++++++++++++++++++++++++++++++++++++++++++

                           -------------------------------
                               Symmetry and Constraints
                           -------------------------------

                      Number of symmetry operations   =         384
                      Number of ionic constraints     =           3
                      Maximum deviation from symmetry = 0.675409E-15     ANG
               Point group of crystal =    32: Oh, m-3m, 4/m -3 2/m
           Set iprint > 1 for details on symmetry rotations/translations

                          Centre of mass is constrained
             Set iprint > 1 for details of linear ionic constraints

                         Number of cell constraints= 5
                         Cell constraints are:  1 1 1 0 0 0

                         External pressure/stress (GPa)
                          0.00000   0.00000   0.00000
                                    0.00000   0.00000
                                              0.00000
  +---------------- MEMORY AND SCRATCH DISK ESTIMATES PER NODE -----------------+
  |                                                     Memory          Disk    |
  | Model and support data                              237.8 MB         0.0 MB |
  | Finite displacement phonon requirements             741.8 MB         0.0 MB |
  |                                               ----------------------------- |
  | Approx. total storage required per node             979.6 MB         0.0 MB |
  |                                                                             |
  | Requirements will fluctuate during execution and may exceed these estimates |
  +-----------------------------------------------------------------------------+

Reading ground state wavefunctions of supercell for phonon calculation from Ca.fd_wvfn
 Perturbation    1 (of    3): Ca    1 X at q=( 0.000, 0.000, 0.000):    186.77s
  +---------------- MEMORY AND SCRATCH DISK ESTIMATES PER NODE -----------------+
  |                                                     Memory          Disk    |
  | Model and support data                             1767.1 MB         0.0 MB |
  | Finite displacement phonon requirements             741.8 MB         0.0 MB |
  |                                               ----------------------------- |
  | Approx. total storage required per node            2508.9 MB         0.0 MB |
  |                                                                             |
  | Requirements will fluctuate during execution and may exceed these estimates |
  +-----------------------------------------------------------------------------+
 Perturbation    2 (of    3): Ca    2 X at q=( 0.000, 0.000, 0.000):   1639.52s
 Perturbation    3 (of    3): Ca    2 Y at q=( 0.000, 0.000, 0.000):   3120.10s
 
 ==============================================================================
 +                           Vibrational Frequencies                          +
 +                           -----------------------                          +
 +                                                                            +
 + Performing frequency calculation at  65 wavevectors (q-pts)                +
 + ========================================================================== +
 +                                                                            +
 + -------------------------------------------------------------------------- +
 +  q-pt=    1 (  0.000000  0.000000  0.000000)     0.0153846154              +
 + -------------------------------------------------------------------------- +
 +  Acoustic sum rule correction <  21.561735 cm-1 applied                    +
 +     N      Frequency irrep.              ir active            raman active + 
 +                (cm-1)                                                      + 
 +                                                                            +
 +     1      -0.022339   a                     N                       N     + 
 +     2      -0.022339   a                     N                       N     + 
 +     3      -0.022339   a                     N                       N     + 
 +     4     175.031915   a                     Y                       N     + 
 +     5     175.031915   a                     Y                       N     + 
 +     6     175.031915   a                     Y                       N     + 
 +     7     197.592580   b                     N                       N     + 
 +     8     197.592580   b                     N                       N     + 
 +     9     197.592580   b                     N                       N     + 
 +    10     213.438865   a                     Y                       N     + 
 +    11     213.438865   a                     Y                       N     + 
 +    12     213.438865   a                     Y                       N     + 
 + .......................................................................... +
 +        Character table from group theory analysis of eigenvectors          +
 +                           Point Group =  32, Oh                            +
 + .......................................................................... +
 +  Rep  Mul |    E  2'   3  2"   4   I m_v  -3 m_v  -4                       +
 +           | ----------------------------------------                       +
 + a T1u   3 |    3  -1   0  -1   1  -3   1   0   1  -1                       +
 + b T2u   1 |    3  -1   0   1  -1  -3   1   0  -1   1                       +
 + -------------------------------------------------------------------------- +
 +  q-pt=    2 (  0.000000  0.055556  0.055556)     0.0153846154              +
 + -------------------------------------------------------------------------- +
 +  Acoustic sum rule correction <   7.940482 cm-1 applied                    +
 +     N      Frequency irrep.                                                + 
 +                (cm-1)                                                      + 
 +                                                                            +
 +     1      32.889817   a                                                   + 
 +     2      34.705425   b                                                   + 
 +     3      35.918485   c                                                   + 
 +     4     174.733283   a                                                   + 
 +     5     175.317863   c                                                   + 
 +     6     175.415075   b                                                   + 
 +     7     197.317756   a                                                   + 
 +     8     197.579925   c                                                   + 
 +     9     197.871611   d                                                   + 
 +    10     213.182619   c                                                   + 
 +    11     213.411909   a                                                   + 
 +    12     213.465694   b                                                   + 
 + .......................................................................... +
 +        Character table from group theory analysis of eigenvectors          +
 +                           Point Group =  32, Oh                            +
 + .......................................................................... +
 +  Rep  Mul |    E   2   m   m                                               +
 +           | ----------------                                               +
 + a       4 |    1  -1   1  -1                                               +
 + b       3 |    1  -1  -1   1                                               +
 + c       4 |    1   1   1   1                                               +
 + d       1 |    1   1  -1  -1                                               +
 + -------------------------------------------------------------------------- +
 +  q-pt=    3 (  0.000000  0.111111  0.111111)     0.0153846154              +
 + -------------------------------------------------------------------------- +
 +  Acoustic sum rule correction <   3.545812 cm-1 applied                    +
 +     N      Frequency irrep.                                                + 
 +                (cm-1)                                                      + 
 +                                                                            +
 +     1      63.806368   a                                                   + 
 +     2      67.487589   b                                                   + 
 +     3      69.861526   c                                                   + 
 +     4     173.789629   a                                                   + 
 +     5     176.073830   c                                                   + 
 +     6     176.447174   b                                                   + 
 +     7     196.384069   a                                                   + 
 +     8     197.421557   c                                                   + 
 +     9     198.501170   d                                                   + 
 +    10     212.342305   c                                                   + 
 +    11     213.264813   a                                                   + 
 +    12     213.434497   b                                                   + 
 + .......................................................................... +
 +        Character table from group theory analysis of eigenvectors          +
 +                           Point Group =  32, Oh                            +
 + .......................................................................... +
 +  Rep  Mul |    E   2   m   m                                               +
 +           | ----------------                                               +
 + a       4 |    1  -1   1  -1                                               +
 + b       3 |    1  -1  -1   1                                               +
 + c       4 |    1   1   1   1                                               +
 + d       1 |    1   1  -1  -1                                               +
 + -------------------------------------------------------------------------- +
 +  q-pt=    4 (  0.000000  0.166667  0.166667)     0.0153846154              +
 + -------------------------------------------------------------------------- +
 +  Acoustic sum rule correction <   2.277933 cm-1 applied                    +
 +     N      Frequency irrep.                                                + 
 +                (cm-1)                                                      + 
 +                                                                            +
 +     1      90.926179   a                                                   + 
 +     2      96.601743   b                                                   + 
 +     3     100.002525   c                                                   + 
 +     4     172.186301   a                                                   + 
 +     5     177.104455   c                                                   + 
 +     6     177.861938   b                                                   + 
 +     7     194.575332   a                                                   + 
 +     8     196.803048   c                                                   + 
 +     9     198.969054   d                                                   + 
 +    10     210.779351   c                                                   + 
 +    11     212.788258   a                                                   + 
 +    12     213.081243   b                                                   + 
 + .......................................................................... +
 +        Character table from group theory analysis of eigenvectors          +
 +                           Point Group =  32, Oh                            +
 + .......................................................................... +
 +  Rep  Mul |    E   2   m   m                                               +
 +           | ----------------                                               +
 + a       4 |    1  -1   1  -1                                               +
 + b       3 |    1  -1  -1   1                                               +
 + c       4 |    1   1   1   1                                               +
 + d       1 |    1   1  -1  -1                                               +
 + -------------------------------------------------------------------------- +
 +  q-pt=    5 (  0.000000  0.222222  0.222222)     0.0153846154              +
 + -------------------------------------------------------------------------- +
 +  Acoustic sum rule correction <   1.642378 cm-1 applied                    +
 +     N      Frequency irrep.                                                + 
 +                (cm-1)                                                      + 
 +                                                                            +
 +     1     112.646840   a                                                   + 
 +     2     120.608553   b                                                   + 
 +     3     124.740996   c                                                   + 
 +     4     170.250101   a                                                   + 
 +     5     178.397044   c                                                   + 
 +     6     179.467278   b                                                   + 
 +     7     191.799633   a                                                   + 
 +     8     195.334565   c                                                   + 
 +     9     198.726712   d                                                   + 
 +    10     208.489974   c                                                   + 
 +    11     211.684119   a                                                   + 
 +    12     212.160577   b                                                   + 
 + .......................................................................... +
 +        Character table from group theory analysis of eigenvectors          +
 +                           Point Group =  32, Oh                            +
 + .......................................................................... +
 +  Rep  Mul |    E   2   m   m                                               +
 +           | ----------------                                               +
 + a       4 |    1  -1   1  -1                                               +
 + b       3 |    1  -1  -1   1                                               +
 + c       4 |    1   1   1   1                                               +
 + d       1 |    1   1  -1  -1                                               +
 + -------------------------------------------------------------------------- +
 +  q-pt=    6 (  0.000000  0.277778  0.277778)     0.0153846154              +
 + -------------------------------------------------------------------------- +
 +  Acoustic sum rule correction <   1.228139 cm-1 applied                    +
 +     N      Frequency irrep.                                                + 
 +                (cm-1)                                                      + 
 +                                                                            +
 +     1     127.564938   a                                                   + 
 +     2     138.437365   b                                                   + 
 +     3     142.698974   c                                                   + 
 +     4     168.951603   a                                                   + 
 +     5     180.381095   c                                                   + 
 +     6     181.394772   b                                                   + 
 +     7     188.255397   a                                                   + 
 +     8     192.741984   c                                                   + 
 +     9     197.476701   d                                                   + 
 +    10     205.815304   c                                                   + 
 +    11     209.768725   a                                                   + 
 +    12     210.617216   b                                                   + 
 + .......................................................................... +
 +        Character table from group theory analysis of eigenvectors          +
 +                           Point Group =  32, Oh                            +
 + .......................................................................... +
 +  Rep  Mul |    E   2   m   m                                               +
 +           | ----------------                                               +
 + a       4 |    1  -1   1  -1                                               +
 + b       3 |    1  -1  -1   1                                               +
 + c       4 |    1   1   1   1                                               +
 + d       1 |    1   1  -1  -1                                               +
 + -------------------------------------------------------------------------- +
 +  q-pt=    7 (  0.000000  0.333333  0.333333)     0.0153846154              +
 + -------------------------------------------------------------------------- +
 +  Acoustic sum rule correction <   0.901273 cm-1 applied                    +
 +     N      Frequency irrep.                                                + 
 +                (cm-1)                                                      + 
 +                                                                            +
 +     1     134.967358   a                                                   + 
 +     2     149.613275   b                                                   + 
 +     3     153.176628   c                                                   + 
 +     4     169.495713   a                                                   + 
 +     5     183.282978   c                                                   + 
 +     6     184.038076   b                                                   + 
 +     7     184.456433   a                                                   + 
 +     8     189.441244   c                                                   + 
 +     9     195.352614   d                                                   + 
 +    10     203.403113   c                                                   + 
 +    11     207.200540   a                                                   + 
 +    12     208.659076   b                                                   + 
 + .......................................................................... +
 +        Character table from group theory analysis of eigenvectors          +
 +                           Point Group =  32, Oh                            +
 + .......................................................................... +
 +  Rep  Mul |    E   2   m   m                                               +
 +           | ----------------                                               +
 + a       4 |    1  -1   1  -1                                               +
 + b       3 |    1  -1  -1   1                                               +
 + c       4 |    1   1   1   1                                               +
 + d       1 |    1   1  -1  -1                                               +
 + -------------------------------------------------------------------------- +
 +  q-pt=    8 (  0.000000  0.388889  0.388889)     0.0153846154              +
 + -------------------------------------------------------------------------- +
 +  Acoustic sum rule correction <   0.673636 cm-1 applied                    +
 +     N      Frequency irrep.                                                + 
 +                (cm-1)                                                      + 
 +                                                                            +
 +     1     136.598088   a                                                   + 
 +     2     155.027520   b                                                   + 
 +     3     157.681526   c                                                   + 
 +     4     171.419342   a                                                   + 
 +     5     181.127217   a                                                   + 
 +     6     183.044268   c                                                   + 
 +     7     187.216688   b                                                   + 
 +     8     189.295805   c                                                   + 
 +     9     192.919395   d                                                   + 
 +    10     201.855800   c                                                   + 
 +    11     204.533685   a                                                   + 
 +    12     206.695703   b                                                   + 
 + .......................................................................... +
 +        Character table from group theory analysis of eigenvectors          +
 +                           Point Group =  32, Oh                            +
 + .......................................................................... +
 +  Rep  Mul |    E   2   m   m                                               +
 +           | ----------------                                               +
 + a       4 |    1  -1   1  -1                                               +
 + b       3 |    1  -1  -1   1                                               +
 + c       4 |    1   1   1   1                                               +
 + d       1 |    1   1  -1  -1                                               +
 + -------------------------------------------------------------------------- +
 +  q-pt=    9 (  0.000000  0.444444  0.444444)     0.0153846154              +
 + -------------------------------------------------------------------------- +
 +  Acoustic sum rule correction <   0.560155 cm-1 applied                    +
 +     N      Frequency irrep.                                                + 
 +                (cm-1)                                                      + 
 +                                                                            +
 +     1     135.972051   a                                                   + 
 +     2     156.947031   b                                                   + 
 +     3     159.181854   c                                                   + 
 +     4     172.935356   a                                                   + 
 +     5     178.978819   a                                                   + 
 +     6     180.059219   c                                                   + 
 +     7     189.803718   b                                                   + 
 +     8     190.979303   d                                                   + 
 +     9     191.329254   c                                                   + 
 +    10     201.356710   c                                                   + 
 +    11     202.521105   a                                                   + 
 +    12     205.208448   b                                                   + 
 + .......................................................................... +
 +        Character table from group theory analysis of eigenvectors          +
 +                           Point Group =  32, Oh                            +
 + .......................................................................... +
 +  Rep  Mul |    E   2   m   m                                               +
 +           | ----------------                                               +
 + a       4 |    1  -1   1  -1                                               +
 + b       3 |    1  -1  -1   1                                               +
 + c       4 |    1   1   1   1                                               +
 + d       1 |    1   1  -1  -1                                               +
 + -------------------------------------------------------------------------- +
 +  q-pt=   10 (  0.000000  0.500000  0.500000)     0.0153846154              +
 + -------------------------------------------------------------------------- +
 +  Acoustic sum rule correction <   0.540397 cm-1 applied                    +
 +     N      Frequency irrep.                                                + 
 +                (cm-1)                                                      + 
 +                                                                            +
 +     1     135.516401   a                                                   + 
 +     2     157.356908   b                                                   + 
 +     3     159.525466   c                                                   + 
 +     4     173.377988   d                                                   + 
 +     5     178.540677   e                                                   + 
 +     6     178.540677   e                                                   + 
 +     7     190.511382   f                                                   + 
 +     8     190.511382   f                                                   + 
 +     9     191.998271   g                                                   + 
 +    10     201.563909   e                                                   + 
 +    11     201.563909   e                                                   + 
 +    12     204.639788   h                                                   + 
 + .......................................................................... +
 +        Character table from group theory analysis of eigenvectors          +
 +                           Point Group =  32, Oh                            +
 + .......................................................................... +
 +  Rep  Mul |    E   2   2   2   4   I   m   m   m  -4                       +
 +           | ----------------------------------------                       +
 + a       1 |    1   1  -1  -1   1   1   1  -1  -1   1                       +
 + b       1 |    1   1   1  -1  -1  -1  -1  -1   1   1                       +
 + c       1 |    1   1  -1   1  -1   1   1  -1   1  -1                       +
 + d       1 |    1   1   1  -1  -1   1   1   1  -1  -1                       +
 + e       2 |    2  -2   0   0   0  -2   2   0   0   0                       +
 + f       1 |    2  -2   0   0   0   2  -2   0   0   0                       +
 + g       1 |    1   1   1   1   1   1   1   1   1   1                       +
 + h       1 |    1   1  -1  -1   1  -1  -1   1   1  -1                       +
 + -------------------------------------------------------------------------- +
 +  q-pt=   11 (  0.050000  0.550000  0.500000)     0.0153846154              +
 + -------------------------------------------------------------------------- +
 +  Acoustic sum rule correction <   0.529691 cm-1 applied                    +
 +     N      Frequency irrep.                                                + 
 +                (cm-1)                                                      + 
 +                                                                            +
 +     1     135.821365   a                                                   + 
 +     2     156.354559   a                                                   + 
 +     3     159.818130   a                                                   + 
 +     4     173.350580   b                                                   + 
 +     5     178.958284   a                                                   + 
 +     6     178.970784   b                                                   + 
 +     7     189.988474   b                                                   + 
 +     8     190.354382   a                                                   + 
 +     9     191.608360   b                                                   + 
 +    10     201.513020   a                                                   + 
 +    11     201.793307   b                                                   + 
 +    12     204.743195   b                                                   + 
 + .......................................................................... +
 +        Character table from group theory analysis of eigenvectors          +
 +                           Point Group =  32, Oh                            +
 + .......................................................................... +
 +  Rep  Mul |    E   m                                                       +
 +           | --------                                                       +
 + a       6 |    1  -1                                                       +
 + b       6 |    1   1                                                       +
 + -------------------------------------------------------------------------- +
 +  q-pt=   12 (  0.100000  0.600000  0.500000)     0.0153846154              +
 + -------------------------------------------------------------------------- +
 +  Acoustic sum rule correction <   0.534724 cm-1 applied                    +
 +     N      Frequency irrep.                                                + 
 +                (cm-1)                                                      + 
 +                                                                            +
 +     1     136.725372   a                                                   + 
 +     2     154.190210   a                                                   + 
 +     3     160.038553   a                                                   + 
 +     4     173.455004   b                                                   + 
 +     5     179.968891   b                                                   + 
 +     6     180.121356   a                                                   + 
 +     7     188.476958   b                                                   + 
 +     8     189.845825   a                                                   + 
 +     9     190.855716   b                                                   + 
 +    10     201.388043   a                                                   + 
 +    11     202.148661   b                                                   + 
 +    12     205.085231   b                                                   + 
 + .......................................................................... +
 +        Character table from group theory analysis of eigenvectors          +
 +                           Point Group =  32, Oh                            +
 + .......................................................................... +
 +  Rep  Mul |    E   m                                                       +
 +           | --------                                                       +
 + a       6 |    1  -1                                                       +
 + b       6 |    1   1                                                       +
 + -------------------------------------------------------------------------- +
 +  q-pt=   13 (  0.150000  0.650000  0.500000)     0.0153846154              +
 + -------------------------------------------------------------------------- +
 +  Acoustic sum rule correction <   0.540153 cm-1 applied                    +
 +     N      Frequency irrep.                                                + 
 +                (cm-1)                                                      + 
 +                                                                            +
 +     1     138.159220   a                                                   + 
 +     2     151.551932   a                                                   + 
 +     3     159.992180   a                                                   + 
 +     4     173.921332   b                                                   + 
 +     5     180.903516   b                                                   + 
 +     6     181.810537   a                                                   + 
 +     7     186.679106   b                                                   + 
 +     8     188.914118   a                                                   + 
 +     9     190.048614   b                                                   + 
 +    10     201.250807   a                                                   + 
 +    11     202.271674   b                                                   + 
 +    12     205.592349   b                                                   + 
 + .......................................................................... +
 +        Character table from group theory analysis of eigenvectors          +
 +                           Point Group =  32, Oh                            +
 + .......................................................................... +
 +  Rep  Mul |    E   m                                                       +
 +           | --------                                                       +
 + a       6 |    1  -1                                                       +
 + b       6 |    1   1                                                       +
 + -------------------------------------------------------------------------- +
 +  q-pt=   14 (  0.200000  0.700000  0.500000)     0.0153846154              +
 + -------------------------------------------------------------------------- +
 +  Acoustic sum rule correction <   0.545004 cm-1 applied                    +
 +     N      Frequency irrep.                                                + 
 +                (cm-1)                                                      + 
 +                                                                            +
 +     1     139.839387   a                                                   + 
 +     2     149.022326   a                                                   + 
 +     3     159.853893   a                                                   + 
 +     4     174.667726   b                                                   + 
 +     5     181.036568   b                                                   + 
 +     6     183.758547   a                                                   + 
 +     7     185.665089   b                                                   + 
 +     8     187.540529   a                                                   + 
 +     9     189.337998   b                                                   + 
 +    10     201.154218   a                                                   + 
 +    11     202.226498   b                                                   + 
 +    12     206.018409   b                                                   + 
 + .......................................................................... +
 +        Character table from group theory analysis of eigenvectors          +
 +                           Point Group =  32, Oh                            +
 + .......................................................................... +
 +  Rep  Mul |    E   m                                                       +
 +           | --------                                                       +
 + a       6 |    1  -1                                                       +
 + b       6 |    1   1                                                       +
 + -------------------------------------------------------------------------- +
 +  q-pt=   15 (  0.250000  0.750000  0.500000)     0.0153846154              +
 + -------------------------------------------------------------------------- +
 +  Acoustic sum rule correction <   0.548756 cm-1 applied                    +
 +     N      Frequency irrep.                                                + 
 +                (cm-1)                                                      + 
 +                                                                            +
 +     1     140.777445   a                                                   + 
 +     2     147.778806   b                                                   + 
 +     3     159.787198   a                                                   + 
 +     4     175.105681   c                                                   + 
 +     5     180.741927   d                                                   + 
 +     6     185.451129   b                                                   + 
 +     7     185.536622   d                                                   + 
 +     8     186.058842   a                                                   + 
 +     9     189.024588   c                                                   + 
 +    10     201.120774   a                                                   + 
 +    11     202.187159   c                                                   + 
 +    12     206.178955   d                                                   + 
 + .......................................................................... +
 +        Character table from group theory analysis of eigenvectors          +
 +                           Point Group =  32, Oh                            +
 + .......................................................................... +
 +  Rep  Mul |    E   2   m   m                                               +
 +           | ----------------                                               +
 + a       4 |    1  -1  -1   1                                               +
 + b       2 |    1   1  -1  -1                                               +
 + c       3 |    1   1   1   1                                               +
 + d       3 |    1  -1   1  -1                                               +
 + -------------------------------------------------------------------------- +
 +  q-pt=   16 (  0.291667  0.750000  0.458333)     0.0153846154              +
 + -------------------------------------------------------------------------- +
 +  Acoustic sum rule correction <   0.672870 cm-1 applied                    +
 +     N      Frequency irrep.                                                + 
 +                (cm-1)                                                      + 
 +                                                                            +
 +     1     140.339441   a                                                   + 
 +     2     146.895495   a                                                   + 
 +     3     159.762945   a                                                   + 
 +     4     174.935799   a                                                   + 
 +     5     180.213580   a                                                   + 
 +     6     183.361759   a                                                   + 
 +     7     185.861604   a                                                   + 
 +     8     186.268422   a                                                   + 
 +     9     188.696184   a                                                   + 
 +    10     200.306587   a                                                   + 
 +    11     202.446064   a                                                   + 
 +    12     205.462049   a                                                   + 
 + .......................................................................... +
 +        Character table from group theory analysis of eigenvectors          +
 +                           Point Group =  32, Oh                            +
 + .......................................................................... +
 +  Rep  Mul |    E                                                           +
 +           | ----                                                           +
 + a      12 |    1                                                           +
 + -------------------------------------------------------------------------- +
 +  q-pt=   17 (  0.333333  0.750000  0.416667)     0.0153846154              +
 + -------------------------------------------------------------------------- +
 +  Acoustic sum rule correction <   0.680983 cm-1 applied                    +
 +     N      Frequency irrep.                                                + 
 +                (cm-1)                                                      + 
 +                                                                            +
 +     1     139.828425   a                                                   + 
 +     2     146.181919   a                                                   + 
 +     3     159.553210   a                                                   + 
 +     4     174.481213   a                                                   + 
 +     5     179.765380   a                                                   + 
 +     6     182.109217   a                                                   + 
 +     7     185.721069   a                                                   + 
 +     8     186.985492   a                                                   + 
 +     9     188.264210   a                                                   + 
 +    10     199.459584   a                                                   + 
 +    11     203.211175   a                                                   + 
 +    12     204.865836   a                                                   + 
 + .......................................................................... +
 +        Character table from group theory analysis of eigenvectors          +
 +                           Point Group =  32, Oh                            +
 + .......................................................................... +
 +  Rep  Mul |    E                                                           +
 +           | ----                                                           +
 + a      12 |    1                                                           +
 + -------------------------------------------------------------------------- +
 +  q-pt=   18 (  0.375000  0.750000  0.375000)     0.0153846154              +
 + -------------------------------------------------------------------------- +
 +  Acoustic sum rule correction <   0.683461 cm-1 applied                    +
 +     N      Frequency irrep.                                                + 
 +                (cm-1)                                                      + 
 +                                                                            +
 +     1     139.608954   a                                                   + 
 +     2     145.915827   b                                                   + 
 +     3     159.449332   b                                                   + 
 +     4     174.272177   a                                                   + 
 +     5     179.573482   b                                                   + 
 +     6     181.710461   a                                                   + 
 +     7     185.673362   b                                                   + 
 +     8     187.308348   a                                                   + 
 +     9     188.037567   b                                                   + 
 +    10     199.158139   b                                                   + 
 +    11     203.630196   a                                                   + 
 +    12     204.531285   b                                                   + 
 + .......................................................................... +
 +        Character table from group theory analysis of eigenvectors          +
 +                           Point Group =  32, Oh                            +
 + .......................................................................... +
 +  Rep  Mul |    E   m                                                       +
 +           | --------                                                       +
 + a       5 |    1  -1                                                       +
 + b       7 |    1   1                                                       +
 + -------------------------------------------------------------------------- +
 +  q-pt=   19 (  0.340909  0.681818  0.340909)     0.0153846154              +
 + -------------------------------------------------------------------------- +
 +  Acoustic sum rule correction <   0.643263 cm-1 applied                    +
 +     N      Frequency irrep.                                                + 
 +                (cm-1)                                                      + 
 +                                                                            +
 +     1     141.679948   a                                                   + 
 +     2     142.585693   b                                                   + 
 +     3     159.089598   b                                                   + 
 +     4     175.649203   a                                                   + 
 +     5     177.012065   b                                                   + 
 +     6     182.367058   a                                                   + 
 +     7     186.457973   a                                                   + 
 +     8     186.764411   b                                                   + 
 +     9     186.905724   b                                                   + 
 +    10     198.665913   b                                                   + 
 +    11     204.180410   b                                                   + 
 +    12     204.189000   a                                                   + 
 + .......................................................................... +
 +        Character table from group theory analysis of eigenvectors          +
 +                           Point Group =  32, Oh                            +
 + .......................................................................... +
 +  Rep  Mul |    E   m                                                       +
 +           | --------                                                       +
 + a       5 |    1  -1                                                       +
 + b       7 |    1   1                                                       +
 + -------------------------------------------------------------------------- +
 +  q-pt=   20 (  0.306818  0.613636  0.306818)     0.0153846154              +
 + -------------------------------------------------------------------------- +
 +  Acoustic sum rule correction <   0.668837 cm-1 applied                    +
 +     N      Frequency irrep.                                                + 
 +                (cm-1)                                                      + 
 +                                                                            +
 +     1     140.727780   a                                                   + 
 +     2     144.129125   b                                                   + 
 +     3     159.273303   a                                                   + 
 +     4     175.506590   a                                                   + 
 +     5     177.736931   b                                                   + 
 +     6     182.295587   b                                                   + 
 +     7     186.113442   a                                                   + 
 +     8     186.326705   b                                                   + 
 +     9     187.776278   a                                                   + 
 +    10     199.017853   a                                                   + 
 +    11     203.465468   a                                                   + 
 +    12     204.779521   b                                                   + 
 + .......................................................................... +
 +        Character table from group theory analysis of eigenvectors          +
 +                           Point Group =  32, Oh                            +
 + .......................................................................... +
 +  Rep  Mul |    E   m                                                       +
 +           | --------                                                       +
 + a       7 |    1   1                                                       +
 + b       5 |    1  -1                                                       +
 + -------------------------------------------------------------------------- +
 +  q-pt=   21 (  0.272727  0.545455  0.272727)     0.0153846154              +
 + -------------------------------------------------------------------------- +
 +  Acoustic sum rule correction <   0.621768 cm-1 applied                    +
 +     N      Frequency irrep.                                                + 
 +                (cm-1)                                                      + 
 +                                                                            +
 +     1     140.462775   a                                                   + 
 +     2     146.663998   b                                                   + 
 +     3     159.803117   a                                                   + 
 +     4     175.324623   a                                                   + 
 +     5     179.761521   b                                                   + 
 +     6     183.306622   b                                                   + 
 +     7     185.658531   a                                                   + 
 +     8     185.957270   b                                                   + 
 +     9     188.722192   a                                                   + 
 +    10     200.372178   a                                                   + 
 +    11     202.340680   a                                                   + 
 +    12     205.593247   b                                                   + 
 + .......................................................................... +
 +        Character table from group theory analysis of eigenvectors          +
 +                           Point Group =  32, Oh                            +
 + .......................................................................... +
 +  Rep  Mul |    E   m                                                       +
 +           | --------                                                       +
 + a       7 |    1   1                                                       +
 + b       5 |    1  -1                                                       +
 + -------------------------------------------------------------------------- +
 +  q-pt=   22 (  0.238636  0.477273  0.238636)     0.0153846154              +
 + -------------------------------------------------------------------------- +
 +  Acoustic sum rule correction <   0.647830 cm-1 applied                    +
 +     N      Frequency irrep.                                                + 
 +                (cm-1)                                                      + 
 +                                                                            +
 +     1     140.895972   a                                                   + 
 +     2     148.240395   b                                                   + 
 +     3     159.670211   a                                                   + 
 +     4     174.953031   a                                                   + 
 +     5     180.785142   b                                                   + 
 +     6     184.913990   b                                                   + 
 +     7     186.446840   a                                                   + 
 +     8     186.545419   b                                                   + 
 +     9     188.980428   a                                                   + 
 +    10     201.001325   a                                                   + 
 +    11     203.078982   a                                                   + 
 +    12     206.809612   b                                                   + 
 + .......................................................................... +
 +        Character table from group theory analysis of eigenvectors          +
 +                           Point Group =  32, Oh                            +
 + .......................................................................... +
 +  Rep  Mul |    E   m                                                       +
 +           | --------                                                       +
 + a       7 |    1   1                                                       +
 + b       5 |    1  -1                                                       +
 + -------------------------------------------------------------------------- +
 +  q-pt=   23 (  0.204545  0.409091  0.204545)     0.0153846154              +
 + -------------------------------------------------------------------------- +
 +  Acoustic sum rule correction <   0.772757 cm-1 applied                    +
 +     N      Frequency irrep.                                                + 
 +                (cm-1)                                                      + 
 +                                                                            +
 +     1     139.849923   a                                                   + 
 +     2     146.686350   b                                                   + 
 +     3     156.785043   a                                                   + 
 +     4     172.743395   a                                                   + 
 +     5     179.867955   b                                                   + 
 +     6     185.420333   b                                                   + 
 +     7     186.659789   a                                                   + 
 +     8     189.835138   a                                                   + 
 +     9     190.519982   b                                                   + 
 +    10     201.781846   a                                                   + 
 +    11     206.099312   a                                                   + 
 +    12     208.456983   b                                                   + 
 + .......................................................................... +
 +        Character table from group theory analysis of eigenvectors          +
 +                           Point Group =  32, Oh                            +
 + .......................................................................... +
 +  Rep  Mul |    E   m                                                       +
 +           | --------                                                       +
 + a       7 |    1   1                                                       +
 + b       5 |    1  -1                                                       +
 + -------------------------------------------------------------------------- +
 +  q-pt=   24 (  0.170455  0.340909  0.170455)     0.0153846154              +
 + -------------------------------------------------------------------------- +
 +  Acoustic sum rule correction <   1.084849 cm-1 applied                    +
 +     N      Frequency irrep.                                                + 
 +                (cm-1)                                                      + 
 +                                                                            +
 +     1     133.555710   a                                                   + 
 +     2     138.909429   b                                                   + 
[...]
 + -------------------------------------------------------------------------- +
 +  Acoustic sum rule correction <  15.418566 cm-1 applied                    +
 +     N      Frequency irrep.                                                + 
 +                (cm-1)                                                      + 
 +                                                                            +
 +     1   -1381.569960   a                                                   + 
 +     2   -1364.738476   a                                                   + 
 +     3   -1351.495708   b                                                   + 
 +     4   -1348.835888   a                                                   + 
 +     5    -508.115692   b                                                   + 
 +     6    -435.209388   b                                                   + 
 +     7    -424.088432   a                                                   + 
 +     8    -398.476070   b                                                   + 
 +     9     694.297818   a                                                   + 
 +    10     787.503997   b                                                   + 
 +    11     797.903037   a                                                   + 
 +    12     899.531156   a                                                   + 
 + .......................................................................... +
 +        Character table from group theory analysis of eigenvectors          +
 +                           Point Group =  32, Oh                            +
 + .......................................................................... +
 +  Rep  Mul |    E   m                                                       +
 +           | --------                                                       +
 + a       7 |    1   1                                                       +
 + b       5 |    1  -1                                                       +
 + -------------------------------------------------------------------------- +
 +  q-pt=  151 (  0.062500  0.531250  0.531250)     0.0065359477              +
 + -------------------------------------------------------------------------- +
 +  Acoustic sum rule correction <   9.521232 cm-1 applied                    +
 +     N      Frequency irrep.                                                + 
 +                (cm-1)                                                      + 
 +                                                                            +
 +     1   -1458.476274   a                                                   + 
 +     2   -1447.708597   a                                                   + 
 +     3   -1436.893557   b                                                   + 
 +     4   -1435.330261   a                                                   + 
 +     5    -559.004348   b                                                   + 
 +     6    -520.720302   b                                                   + 
 +     7    -515.010646   a                                                   + 
 +     8    -487.486512   b                                                   + 
 +     9     678.623450   a                                                   + 
 +    10     746.699936   b                                                   + 
 +    11     757.001278   a                                                   + 
 +    12     828.414281   a                                                   + 
 + .......................................................................... +
 +        Character table from group theory analysis of eigenvectors          +
 +                           Point Group =  32, Oh                            +
 + .......................................................................... +
 +  Rep  Mul |    E   m                                                       +
 +           | --------                                                       +
 + a       7 |    1   1                                                       +
 + b       5 |    1  -1                                                       +
 + -------------------------------------------------------------------------- +
 +  q-pt=  152 (  0.031250  0.515625  0.515625)     0.0065359477              +
 + -------------------------------------------------------------------------- +
 +  Acoustic sum rule correction <   9.605772 cm-1 applied                    +
 +     N      Frequency irrep.                                                + 
 +                (cm-1)                                                      + 
 +                                                                            +
 +     1   -1506.226245   a                                                   + 
 +     2   -1496.515203   a                                                   + 
 +     3   -1489.303855   a                                                   + 
 +     4   -1489.003930   b                                                   + 
 +     5    -588.200593   b                                                   + 
 +     6    -571.997293   b                                                   + 
 +     7    -566.575295   a                                                   + 
 +     8    -538.895933   b                                                   + 
 +     9     684.100962   a                                                   + 
 +    10     718.551654   b                                                   + 
 +    11     728.833469   a                                                   + 
 +    12     764.012129   a                                                   + 
 + .......................................................................... +
 +        Character table from group theory analysis of eigenvectors          +
 +                           Point Group =  32, Oh                            +
 + .......................................................................... +
 +  Rep  Mul |    E   m                                                       +
 +           | --------                                                       +
 + a       7 |    1   1                                                       +
 + b       5 |    1  -1                                                       +
 + -------------------------------------------------------------------------- +
 +  q-pt=  153 (  0.000000  0.500000  0.500000)     0.0065359477              +
 + -------------------------------------------------------------------------- +
 +  Acoustic sum rule correction <  19.803496 cm-1 applied                    +
 +     N      Frequency irrep.                                                + 
 +                (cm-1)                                                      + 
 +                                                                            +
 +     1   -1522.179443   a                                                   + 
 +     2   -1509.223913   b                                                   + 
 +     3   -1508.901270   c                                                   + 
 +     4   -1508.901270   c                                                   + 
 +     5    -589.845360   d                                                   + 
 +     6    -589.550244   c                                                   + 
 +     7    -589.550244   c                                                   + 
 +     8    -557.369770   e                                                   + 
 +     9     713.507778   f                                                   + 
 +    10     713.507778   f                                                   + 
 +    11     713.684412   g                                                   + 
 +    12     713.797373   h                                                   + 
 + .......................................................................... +
 +        Character table from group theory analysis of eigenvectors          +
 +                           Point Group =  32, Oh                            +
 + .......................................................................... +
 +  Rep  Mul |    E   2   2   2   4   I   m   m   m  -4                       +
 +           | ----------------------------------------                       +
 + a       1 |    1   1   1   1   1   1   1   1   1   1                       +
 + b       1 |    1   1  -1   1  -1   1   1  -1   1  -1                       +
 + c       2 |    2  -2   0   0   0  -2   2   0   0   0                       +
 + d       1 |    1   1  -1  -1   1   1   1  -1  -1   1                       +
 + e       1 |    1   1   1  -1  -1   1   1   1  -1  -1                       +
 + f       1 |    2  -2   0   0   0   2  -2   0   0   0                       +
 + g       1 |    1   1  -1  -1   1  -1  -1   1   1  -1                       +
 + h       1 |    1   1   1  -1  -1  -1  -1  -1   1   1                       +
 ==============================================================================

  =====================================================================
                             Thermodynamics
                             ==============

            Zero-point energy =         0.460183  eV
 ------------------------------------------------------------------------------ 
       T(K)        E(eV)           F(eV)         S(J/mol/K)      Cv(J/mol/K)   
 ------------------------------------------------------------------------------ 
       0.0        0.460183        0.460183           0.000           0.000     
       3.0        0.460183        0.460183           0.000           0.000     
       5.9        0.460183        0.460183           0.001           0.007     
       8.9        0.460184        0.460183           0.010           0.041     
      11.9        0.460186        0.460182           0.028           0.094     
      14.9        0.460190        0.460181           0.056           0.158     
      17.8        0.460195        0.460179           0.091           0.231     
      20.8        0.460204        0.460175           0.133           0.314     
      23.8        0.460215        0.460170           0.180           0.407     
      26.7        0.460229        0.460164           0.234           0.511     
      29.7        0.460246        0.460156           0.294           0.623     
      32.7        0.460267        0.460146           0.359           0.744     
      35.6        0.460292        0.460134           0.429           0.871     
      38.6        0.460321        0.460119           0.504           1.004     
      41.6        0.460354        0.460103           0.583           1.142     
      44.6        0.460391        0.460084           0.667           1.285     
      47.5        0.460433        0.460062           0.755           1.433     
      50.5        0.460480        0.460037           0.846           1.584     
      53.5        0.460531        0.460010           0.941           1.741     
      56.4        0.460587        0.459979           1.039           1.902     
      59.4        0.460648        0.459946           1.141           2.069     
      62.4        0.460714        0.459909           1.246           2.242     
      65.3        0.460786        0.459869           1.355           2.422     
      68.3        0.460864        0.459825           1.466           2.608     
      71.3        0.460947        0.459778           1.581           2.801     
      74.3        0.461036        0.459728           1.700           3.003     
      77.2        0.461132        0.459674           1.822           3.212     
      80.2        0.461234        0.459616           1.947           3.430     
      83.2        0.461343        0.459554           2.076           3.657     
      86.1        0.461459        0.459488           2.208           3.893     
      89.1        0.461583        0.459418           2.344           4.139     
      92.1        0.461714        0.459344           2.484           4.394     
      95.0        0.461854        0.459265           2.628           4.659     
      98.0        0.462001        0.459182           2.775           4.933     
     101.0        0.462157        0.459094           2.927           5.217     
     104.0        0.462323        0.459001           3.082           5.511     
     106.9        0.462497        0.458904           3.242           5.814     
     109.9        0.462681        0.458802           3.405           6.126     
     112.9        0.462874        0.458694           3.573           6.447     
     115.8        0.463078        0.458582           3.745           6.777     
     118.8        0.463291        0.458464           3.920           7.115     
     121.8        0.463516        0.458340           4.100           7.462     
     124.8        0.463751        0.458211           4.284           7.817     
     127.7        0.463997        0.458077           4.473           8.179     
     130.7        0.464255        0.457936           4.665           8.548     
     133.7        0.464523        0.457789           4.861           8.925     
     136.6        0.464804        0.457637           5.061           9.307     
     139.6        0.465097        0.457478           5.266           9.696     
     142.6        0.465401        0.457312           5.474          10.091     
     145.5        0.465718        0.457140           5.686          10.491     
     148.5        0.466047        0.456962           5.902          10.895     
     151.5        0.466389        0.456777           6.122          11.305     
     154.5        0.466743        0.456585           6.346          11.718     
     157.4        0.467110        0.456386           6.573          12.136     
     160.4        0.467490        0.456180           6.803          12.557     
     163.4        0.467883        0.455967           7.038          12.981     
     166.3        0.468290        0.455747           7.275          13.407     
     169.3        0.468709        0.455519           7.517          13.836     
     172.3        0.469142        0.455284           7.761          14.268     
     175.2        0.469587        0.455042           8.008          14.701     
     178.2        0.470047        0.454791           8.259          15.135     
     181.2        0.470519        0.454533           8.513          15.571     
     184.2        0.471005        0.454267           8.770          16.007     
     187.1        0.471505        0.453993           9.029          16.444     
     190.1        0.472018        0.453711           9.292          16.882     
     193.1        0.472544        0.453421           9.557          17.320     
     196.0        0.473084        0.453123           9.825          17.758     
     199.0        0.473638        0.452816          10.095          18.195     
     202.0        0.474205        0.452501          10.368          18.632     
     205.0        0.474785        0.452178          10.643          19.068     
     207.9        0.475379        0.451846          10.920          19.504     
     210.9        0.475986        0.451505          11.200          19.938     
     213.9        0.476606        0.451156          11.482          20.371     
     216.8        0.477240        0.450798          11.766          20.803     
     219.8        0.477887        0.450432          12.052          21.233     
     222.8        0.478547        0.450056          12.340          21.662     
     225.7        0.479221        0.449672          12.630          22.089     
     228.7        0.479907        0.449279          12.921          22.514     
     231.7        0.480607        0.448876          13.214          22.937     
     234.7        0.481319        0.448465          13.509          23.358     
     237.6        0.482045        0.448045          13.806          23.776     
     240.6        0.482783        0.447615          14.104          24.193     
     243.6        0.483534        0.447176          14.403          24.607     
     246.5        0.484298        0.446728          14.704          25.019     
     249.5        0.485075        0.446271          15.006          25.428     
     252.5        0.485864        0.445804          15.309          25.835     
     255.4        0.486665        0.445328          15.614          26.239     
     258.4        0.487479        0.444843          15.919          26.640     
     261.4        0.488306        0.444348          16.226          27.039     
     264.4        0.489144        0.443844          16.534          27.435     
     267.3        0.489995        0.443330          16.843          27.828     
     270.3        0.490857        0.442807          17.152          28.218     
     273.3        0.491732        0.442274          17.463          28.606     
     276.2        0.492619        0.441732          17.774          28.991     
     279.2        0.493517        0.441180          18.086          29.373     
     282.2        0.494427        0.440618          18.399          29.752     
     285.1        0.495349        0.440047          18.712          30.128     
     288.1        0.496282        0.439466          19.027          30.501     
     291.1        0.497227        0.438875          19.341          30.871     
     294.1        0.498183        0.438275          19.657          31.238     
     297.0        0.499150        0.437665          19.972          31.602     
     300.0        0.500128        0.437045          20.289          31.963     
 ------------------------------------------------------------------------------ 

 ***************** Symmetrised Forces *****************
 *                                                    *
 *            Cartesian components (eV/A)             *
 * -------------------------------------------------- *
 *                   x            y            z      *
 *                                                    *
 * Ca        1      0.00000      0.00000      0.00000 *
 * Ca        2      0.00000      0.00000      0.00000 *
 * Ca        3      0.00000      0.00000      0.00000 *
 * Ca        4      0.00000      0.00000      0.00000 *
 *                                                    *
 ******************************************************

 Pseudo atomic calculation performed for Ca 3s2 3p6 4s2

 Converged in 19 iterations to a total energy of -1001.2130 eV

Charge spilling parameter for spin component 1 = 0.45%

     Atomic Populations (Mulliken)
     -----------------------------
Species   Ion     s      p      d      f     Total  Charge (e)
==============================================================
  Ca       1     1.71   5.27   3.02   0.00  10.00    -0.00
  Ca       2     1.71   5.27   3.02   0.00  10.00     0.00
  Ca       3     1.71   5.27   3.02   0.00  10.00     0.00
  Ca       4     1.71   5.27   3.02   0.00  10.00     0.00
==============================================================

            Bond              Population      Length (A)
============================================================
         Ca 3 -- Ca 4           -193.35        1.77847
         Ca 2 -- Ca 4           -193.35        1.77847
         Ca 2 -- Ca 3           -193.35        1.77847
         Ca 1 -- Ca 4           -193.35        1.77847
         Ca 1 -- Ca 3           -193.35        1.77847
         Ca 1 -- Ca 2           -193.35        1.77847
============================================================


Writing model to Ca.check

Writing analysis data to Ca.castep_bin
 
 A BibTeX formatted list of references used in this run has been written to 
 Ca.bib
 
Initialisation time =      8.10 s
Calculation time    =    964.89 s
Finalisation time   =      0.59 s
Total time          =    973.58 s
Peak Memory Use     = 404528 kB
