 +-------------------------------------------------+
 |                                                 |
 |      CCC   AA    SSS  TTTTT  EEEEE  PPPP        |
 |     C     A  A  S       T    E      P   P       |
 |     C     AAAA   SS     T    EEE    PPPP        |
 |     C     A  A     S    T    E      P           |
 |      CCC  A  A  SSS     T    EEEEE  P           |
 |                                                 |
 +-------------------------------------------------+
 |                                                 |
 | Welcome to Academic Release CASTEP version 6.11 |
 | Ab Initio Total Energy Program                  |
 |                                                 |
 | Authors:                                        |
 | M. Segall, M. Probert, C. Pickard, P. Hasnip,   |
 | S. Clark, K. Refson, J. R. Yates, M. Payne      |
 |                                                 |
 | Contributors:                                   |
 | P. Lindan, P. Haynes, J. White, V. Milman,      |
 | N. Govind, M. Gibson, P. Tulip, V. Cocula,      |
 | B. Montanari, D. Quigley, M. Glover,            |
 | L. Bernasconi, A. Perlov, M. Plummer,           |
 | E. McNellis, J. Meyer, J. Gale, D. Jochym       |
 | J. Aarons, B. Walker, R. Gillen                 |
 |                                                 |
 | Copyright (c) 2000 - 2012                       |
 |                                                 |
 |     Distributed under the terms of an           |
 |     Agreement between the United Kingdom        |
 |     Car-Parrinello (UKCP) Consortium,           |
 |     Daresbury Laboratory and Accelrys, Inc.     |
 |                                                 |
 | Please cite                                     |
 |                                                 |
 |     "First principles methods using CASTEP"     |
 |                                                 |
 |         Zeitschrift fuer Kristallographie       |
 |           220(5-6) pp. 567-570 (2005)           |
 |                                                 |
 | S. J. Clark, M. D. Segall, C. J. Pickard,       |
 | P. J. Hasnip, M. J. Probert, K. Refson,         |
 | M. C. Payne                                     |
 |                                                 |
 |       in all publications arising from          |
 |              your use of CASTEP                 |
 |                                                 |
 +-------------------------------------------------+


 Compiled for linux_x86_64_gfortran on Tue Jul 23 08:36:46 2013
 from source code version 17dc085fd1b9+ Castep61_branch 2013-03-13
 using intermediate optimisation, default FFTs and default LAPACK and BLAS.


 Atomic calculation performed for Ca: 1s2 2s2 2p6 3s2 3p6 4s2

 Converged in 54 iterations to an ae energy of -18512.579 eV

   ============================================================                
   | Pseudopotential Report - Date of generation 30-03-2015   |                
   ------------------------------------------------------------                
   | Element: Ca Ionic charge: 10.00 Level of theory: PBE     |                
   |                                                          |                
   |               Reference Electronic Structure             |                
   |         Orbital         Occupation         Energy        |                
   |            3s              2.000           -1.731        |                
   |            3p              6.000           -1.029        |                
   |            4s              2.000           -0.138        |                
   |                                                          |                
   |                 Pseudopotential Definition               |                
   |        Beta     l      e      Rc     scheme   norm       |                
   |          1      0   -1.731   2.005     qc      0         |                
   |          2      0   -0.138   2.005     qc      0         |                
   |          3      1   -1.029   2.005     qc      0         |                
   |          4      1    0.250   2.005     qc      0         |                
   |          5      2    0.000   2.005     qc      0         |                
   |          6      2    1.000   2.005     qc      0         |                
   |         loc     3    0.000   1.601     pn      0         |                
   |                                                          |                
   | Augmentation charge Rinner = 1.401                       |                
   | Partial core correction Rc = 1.401                       |                
   ------------------------------------------------------------                
   | "3|1.6|2.0|1.4|7|9|10|30U:40U:31:32U=0U=1.0"             |                
   ------------------------------------------------------------                
   |      Author: Chris J. Pickard, Cambridge University      |                
   ============================================================                

 Pseudo atomic calculation performed for Ca 3s2 3p6 4s2

 Converged in 19 iterations to a total energy of -1001.2130 eV

 Calculation not parallelised.

 ************************************ Title ************************************
 

 ***************************** General Parameters ******************************
  
 output verbosity                               : normal  (1)
 write checkpoint data to                       : Ca.check
 type of calculation                            : single point energy
 stress calculation                             : off
 density difference calculation                 : off
 electron localisation func (ELF) calculation   : off
 Hirshfeld analysis                             : off
 unlimited duration calculation
 timing information                             : on
 memory usage estimate                          : on
 write final potential to formatted file        : off
 write final density to formatted file          : off
 write BibTeX reference list                    : on
  
 output         length unit                     : A
 output           mass unit                     : amu
 output           time unit                     : ps
 output         charge unit                     : e
 output         energy unit                     : eV
 output          force unit                     : eV/A
 output       velocity unit                     : A/ps
 output       pressure unit                     : GPa
 output     inv_length unit                     : 1/A
 output      frequency unit                     : cm-1
 output force constant unit                     : eV/A**2
 output         volume unit                     : A**3
 output   IR intensity unit                     : (D/A)**2/amu
 output         dipole unit                     : D
 output         efield unit                     : eV/A/e
 output        entropy unit                     : J/mol/K
  
 wavefunctions paging                           : none
 data distribution                              : optimal for this architecture
 optimization strategy                          : maximize speed(+++)

 *********************** Exchange-Correlation Parameters ***********************
  
 using functional                               : Perdew Wang (1991)
 Divergence correction                          : off
 DFT+D: Semi-empirical dispersion correction    : off

 ************************* Pseudopotential Parameters **************************
  
 pseudopotential representation                 : reciprocal space
 <beta|phi> representation                      : reciprocal space

 **************************** Basis Set Parameters *****************************
  
 plane wave basis set cut-off                   :   700.0000   eV
 finite basis set correction                    : none

 **************************** Electronic Parameters ****************************
  
 number of  electrons                           :  20.00    
 net charge of system                           :  0.000    
 net spin   of system                           :  0.000    
 number of  up  spins                           :  10.00    
 number of down spins                           :  10.00    
 treating system as non-spin-polarized
 number of bands                                :         14

 ********************* Electronic Minimization Parameters **********************
  
 Method: Treating system as metallic with density mixing treatment of electrons,
         and number of  SD  steps               :          1
         and number of  CG  steps               :          4
  
 total energy / atom convergence tol.           : 0.1000E-04   eV
 eigen-energy convergence tolerance             : 0.1000E-05   eV
 max force / atom convergence tol.              : ignored
 convergence tolerance window                   :          3   cycles
 max. number of SCF cycles                      :         30
 number of fixed-spin iterations                :         10
 smearing scheme                                : Gaussian
 smearing width                                 : 0.4000E-01   eV
 Fermi energy convergence tolerance             : 0.1000E-06   eV
 periodic dipole correction                     : NONE

 ************************** Density Mixing Parameters **************************
  
 density-mixing scheme                          : Broyden
 max. length of mixing history                  :          7
 charge density mixing amplitude                : 0.8000    
 cut-off energy for mixing                      :  700.0       eV

 *********************** Population Analysis Parameters ************************
  
 Population analysis with cutoff                :  3.000       A

 *******************************************************************************
  

                           -------------------------------
                                      Unit Cell
                           -------------------------------
        Real Lattice(A)                      Reciprocal Lattice(1/A)
   5.0054510   0.0000000   0.0000000        1.2552686  -0.0000000  -0.0000000
   0.0000000   5.0054510   0.0000000        0.0000000   1.2552686  -0.0000000
   0.0000000   0.0000000   5.0054510        0.0000000   0.0000000   1.2552686

                       Lattice parameters(A)       Cell Angles
                    a =    5.005451          alpha =   90.000000
                    b =    5.005451          beta  =   90.000000
                    c =    5.005451          gamma =   90.000000

                       Current cell volume =  125.409271       A**3

                           -------------------------------
                                     Cell Contents
                           -------------------------------
                         Total number of ions in cell =    2
                      Total number of species in cell =    1
                        Max number of any one species =    2

            xxxxxxxxxxxxxxxxxxxxxxxxxxxxxxxxxxxxxxxxxxxxxxxxxxxxxxxxxxxx
            x  Element    Atom        Fractional coordinates of atoms  x
            x            Number           u          v          w      x
            x----------------------------------------------------------x
            x  Ca           1         0.000000   0.000000   0.000000   x
            x  Ca           2         0.500000   0.500000   0.500000   x
            xxxxxxxxxxxxxxxxxxxxxxxxxxxxxxxxxxxxxxxxxxxxxxxxxxxxxxxxxxxx


                         No user defined ionic velocities

                           -------------------------------
                                   Details of Species
                           -------------------------------

                               Mass of species in AMU
                                    Ca   40.0780000

                          Electric Quadrupole Moment (Barn)
                                    Ca   -0.0408000 Isotope 43

                          Files used for pseudopotentials:
                                    Ca Pseudopotential generated on-the-fly

                           -------------------------------
                              k-Points For BZ Sampling
                           -------------------------------
                       MP grid size for SCF calculation is  8  8  8
                         Number of kpoints used =          20

             +++++++++++++++++++++++++++++++++++++++++++++++++++++++
             +  Number       Fractional coordinates        Weight  +
             +-----------------------------------------------------+
             +     1  -0.437500  -0.437500  -0.062500   0.0468750  +
             +     2  -0.437500   0.187500  -0.187500   0.0468750  +
             +     3  -0.437500   0.187500   0.437500   0.0468750  +
             +     4  -0.437500   0.437500  -0.312500   0.0468750  +
             +     5  -0.437500   0.437500   0.437500   0.0156250  +
             +     6  -0.312500  -0.312500  -0.312500   0.0156250  +
             +     7  -0.312500  -0.312500  -0.187500   0.0468750  +
             +     8  -0.312500  -0.312500  -0.062500   0.0468750  +
             +     9  -0.312500  -0.187500  -0.187500   0.0468750  +
             +    10  -0.187500  -0.187500  -0.187500   0.0156250  +
             +    11  -0.187500  -0.062500  -0.187500   0.0468750  +
             +    12  -0.062500   0.312500   0.437500   0.0937500  +
             +    13   0.062500  -0.437500  -0.187500   0.0937500  +
             +    14   0.062500  -0.437500  -0.062500   0.0468750  +
             +    15   0.062500  -0.312500  -0.187500   0.0937500  +
             +    16   0.062500  -0.312500  -0.062500   0.0468750  +
             +    17   0.062500  -0.187500  -0.062500   0.0468750  +
             +    18   0.062500   0.062500   0.062500   0.0156250  +
             +    19   0.312500  -0.312500   0.437500   0.0468750  +
             +    20   0.312500   0.187500  -0.437500   0.0937500  +
             +++++++++++++++++++++++++++++++++++++++++++++++++++++++

                           -------------------------------
                               Symmetry and Constraints
                           -------------------------------

                      Number of symmetry operations   =          48
                      Number of ionic constraints     =           3
                      Maximum deviation from symmetry = 0.612991E-15     ANG
               Point group of crystal =    32: Oh, m-3m, 4/m -3 2/m
           Set iprint > 1 for details on symmetry rotations/translations

                          Centre of mass is constrained
             Set iprint > 1 for details of linear ionic constraints

                         Number of cell constraints= 5
                         Cell constraints are:  1 1 1 0 0 0

                         External pressure/stress (GPa)
                          0.00000   0.00000   0.00000
                                    0.00000   0.00000
                                              0.00000
  
+---------------- MEMORY AND SCRATCH DISK ESTIMATES PER NODE -----------------+
|                                                     Memory          Disk    |
| Model and support data                              161.7 MB         0.0 MB |
| Electronic energy minimisation requirements          53.0 MB         0.0 MB |
|                                               ----------------------------- |
| Approx. total storage required per node             214.7 MB         0.0 MB |
|                                                                             |
| Requirements will fluctuate during execution and may exceed these estimates |
+-----------------------------------------------------------------------------+
------------------------------------------------------------------------ <-- SCF
SCF loop      Energy           Fermi           Energy gain       Timer   <-- SCF
                               energy          per atom          (sec)   <-- SCF
------------------------------------------------------------------------ <-- SCF
Initial  -1.73909616E+003  0.00000000E+000                        10.19  <-- SCF
      1  -1.97278708E+003  4.65406794E+000   1.16845459E+002      16.58  <-- SCF
      2  -2.00581944E+003  2.18139363E+000   1.65161811E+001      20.61  <-- SCF
      3  -2.00687250E+003  1.86843666E+000   5.26529314E-001      26.47  <-- SCF
      4  -2.00691441E+003  1.85945684E+000   2.09542851E-002      32.41  <-- SCF
      5  -2.00692154E+003  1.84968859E+000   3.56491627E-003      38.65  <-- SCF
      6  -2.00692213E+003  1.84572539E+000   2.95492412E-004      44.23  <-- SCF
      7  -2.00692216E+003  1.84478919E+000   1.53223750E-005      49.09  <-- SCF
      8  -2.00692216E+003  1.84459450E+000   2.36385866E-006      52.55  <-- SCF
      9  -2.00692216E+003  1.84453672E+000   3.25687842E-007      55.73  <-- SCF
------------------------------------------------------------------------ <-- SCF
 
Final energy, E             =  -2006.920267094     eV
Final free energy (E-TS)    =  -2006.922163111     eV
(energies not corrected for finite basis set)
 
NB est. 0K energy (E-0.5TS)      =  -2006.921215103     eV
 

Writing model to Ca.check

 ***************** Symmetrised Forces *****************
 *                                                    *
 *            Cartesian components (eV/A)             *
 * -------------------------------------------------- *
 *                   x            y            z      *
 *                                                    *
 * Ca        1      0.00000      0.00000      0.00000 *
 * Ca        2      0.00000      0.00000      0.00000 *
 *                                                    *
 ******************************************************

 Pseudo atomic calculation performed for Ca 3s2 3p6 4s2

 Converged in 19 iterations to a total energy of -1001.2130 eV

Charge spilling parameter for spin component 1 = 2.66%

     Atomic Populations (Mulliken)
     -----------------------------
Species   Ion     s      p      d      f     Total  Charge (e)
==============================================================
  Ca       1     3.35   6.00   0.65   0.00  10.00    -0.00
  Ca       2     3.35   6.00   0.65   0.00  10.00     0.00
==============================================================

            Bond              Population      Length (A)
============================================================
============================================================


Writing model to Ca.check

Writing analysis data to Ca.castep_bin
 
 A BibTeX formatted list of references used in this run has been written to 
 Ca.bib
 
Initialisation time =      8.56 s
Calculation time    =     50.40 s
Finalisation time   =      1.81 s
Total time          =     60.77 s
Peak Memory Use     = 275376 kB
 +-------------------------------------------------+
 |                                                 |
 |      CCC   AA    SSS  TTTTT  EEEEE  PPPP        |
 |     C     A  A  S       T    E      P   P       |
 |     C     AAAA   SS     T    EEE    PPPP        |
 |     C     A  A     S    T    E      P           |
 |      CCC  A  A  SSS     T    EEEEE  P           |
 |                                                 |
 +-------------------------------------------------+
 |                                                 |
 | Welcome to Academic Release CASTEP version 6.11 |
 | Ab Initio Total Energy Program                  |
 |                                                 |
 | Authors:                                        |
 | M. Segall, M. Probert, C. Pickard, P. Hasnip,   |
 | S. Clark, K. Refson, J. R. Yates, M. Payne      |
 |                                                 |
 | Contributors:                                   |
 | P. Lindan, P. Haynes, J. White, V. Milman,      |
 | N. Govind, M. Gibson, P. Tulip, V. Cocula,      |
 | B. Montanari, D. Quigley, M. Glover,            |
 | L. Bernasconi, A. Perlov, M. Plummer,           |
 | E. McNellis, J. Meyer, J. Gale, D. Jochym       |
 | J. Aarons, B. Walker, R. Gillen                 |
 |                                                 |
 | Copyright (c) 2000 - 2012                       |
 |                                                 |
 |     Distributed under the terms of an           |
 |     Agreement between the United Kingdom        |
 |     Car-Parrinello (UKCP) Consortium,           |
 |     Daresbury Laboratory and Accelrys, Inc.     |
 |                                                 |
 | Please cite                                     |
 |                                                 |
 |     "First principles methods using CASTEP"     |
 |                                                 |
 |         Zeitschrift fuer Kristallographie       |
 |           220(5-6) pp. 567-570 (2005)           |
 |                                                 |
 | S. J. Clark, M. D. Segall, C. J. Pickard,       |
 | P. J. Hasnip, M. J. Probert, K. Refson,         |
 | M. C. Payne                                     |
 |                                                 |
 |       in all publications arising from          |
 |              your use of CASTEP                 |
 |                                                 |
 +-------------------------------------------------+


 Compiled for linux_x86_64_gfortran on Tue Jul 23 08:36:46 2013
 from source code version 17dc085fd1b9+ Castep61_branch 2013-03-13
 using intermediate optimisation, default FFTs and default LAPACK and BLAS.


 Atomic calculation performed for Ca: 1s2 2s2 2p6 3s2 3p6 4s2

 Converged in 54 iterations to an ae energy of -18512.579 eV

   ============================================================                
   | Pseudopotential Report - Date of generation 30-03-2015   |                
   ------------------------------------------------------------                
   | Element: Ca Ionic charge: 10.00 Level of theory: PBE     |                
   |                                                          |                
   |               Reference Electronic Structure             |                
   |         Orbital         Occupation         Energy        |                
   |            3s              2.000           -1.731        |                
   |            3p              6.000           -1.029        |                
   |            4s              2.000           -0.138        |                
   |                                                          |                
   |                 Pseudopotential Definition               |                
   |        Beta     l      e      Rc     scheme   norm       |                
   |          1      0   -1.731   2.005     qc      0         |                
   |          2      0   -0.138   2.005     qc      0         |                
   |          3      1   -1.029   2.005     qc      0         |                
   |          4      1    0.250   2.005     qc      0         |                
   |          5      2    0.000   2.005     qc      0         |                
   |          6      2    1.000   2.005     qc      0         |                
   |         loc     3    0.000   1.601     pn      0         |                
   |                                                          |                
   | Augmentation charge Rinner = 1.401                       |                
   | Partial core correction Rc = 1.401                       |                
   ------------------------------------------------------------                
   | "3|1.6|2.0|1.4|7|9|10|30U:40U:31:32U=0U=1.0"             |                
   ------------------------------------------------------------                
   |      Author: Chris J. Pickard, Cambridge University      |                
   ============================================================                

 Pseudo atomic calculation performed for Ca 3s2 3p6 4s2

 Converged in 19 iterations to a total energy of -1001.2130 eV

 Calculation not parallelised.

 ************************************ Title ************************************
 

 ***************************** General Parameters ******************************
  
 output verbosity                               : normal  (1)
 write checkpoint data to                       : Ca.check
 type of calculation                            : single point energy
 stress calculation                             : off
 density difference calculation                 : off
 electron localisation func (ELF) calculation   : off
 Hirshfeld analysis                             : off
 unlimited duration calculation
 timing information                             : on
 memory usage estimate                          : on
 write final potential to formatted file        : off
 write final density to formatted file          : off
 write BibTeX reference list                    : on
  
 output         length unit                     : A
 output           mass unit                     : amu
 output           time unit                     : ps
 output         charge unit                     : e
 output         energy unit                     : eV
 output          force unit                     : eV/A
 output       velocity unit                     : A/ps
 output       pressure unit                     : GPa
 output     inv_length unit                     : 1/A
 output      frequency unit                     : cm-1
 output force constant unit                     : eV/A**2
 output         volume unit                     : A**3
 output   IR intensity unit                     : (D/A)**2/amu
 output         dipole unit                     : D
 output         efield unit                     : eV/A/e
 output        entropy unit                     : J/mol/K
  
 wavefunctions paging                           : none
 data distribution                              : optimal for this architecture
 optimization strategy                          : maximize speed(+++)

 *********************** Exchange-Correlation Parameters ***********************
  
 using functional                               : Perdew Wang (1991)
 Divergence correction                          : off
 DFT+D: Semi-empirical dispersion correction    : off

 ************************* Pseudopotential Parameters **************************
  
 pseudopotential representation                 : reciprocal space
 <beta|phi> representation                      : reciprocal space

 **************************** Basis Set Parameters *****************************
  
 plane wave basis set cut-off                   :   700.0000   eV
 finite basis set correction                    : none

 **************************** Electronic Parameters ****************************
  
 number of  electrons                           :  20.00    
 net charge of system                           :  0.000    
 net spin   of system                           :  0.000    
 number of  up  spins                           :  10.00    
 number of down spins                           :  10.00    
 treating system as non-spin-polarized
 number of bands                                :         14

 ********************* Electronic Minimization Parameters **********************
  
 Method: Treating system as metallic with density mixing treatment of electrons,
         and number of  SD  steps               :          1
         and number of  CG  steps               :          4
  
 total energy / atom convergence tol.           : 0.1000E-04   eV
 eigen-energy convergence tolerance             : 0.1000E-05   eV
 max force / atom convergence tol.              : ignored
 convergence tolerance window                   :          3   cycles
 max. number of SCF cycles                      :         30
 number of fixed-spin iterations                :         10
 smearing scheme                                : Gaussian
 smearing width                                 : 0.4000E-01   eV
 Fermi energy convergence tolerance             : 0.1000E-06   eV
 periodic dipole correction                     : NONE

 ************************** Density Mixing Parameters **************************
  
 density-mixing scheme                          : Broyden
 max. length of mixing history                  :          7
 charge density mixing amplitude                : 0.8000    
 cut-off energy for mixing                      :  700.0       eV

 *********************** Population Analysis Parameters ************************
  
 Population analysis with cutoff                :  3.000       A

 *******************************************************************************
  

                           -------------------------------
                                      Unit Cell
                           -------------------------------
        Real Lattice(A)                      Reciprocal Lattice(1/A)
   4.9054510   0.0000000   0.0000000        1.2808578  -0.0000000  -0.0000000
   0.0000000   4.9054510   0.0000000        0.0000000   1.2808578  -0.0000000
   0.0000000   0.0000000   4.9054510        0.0000000   0.0000000   1.2808578

                       Lattice parameters(A)       Cell Angles
                    a =    4.905451          alpha =   90.000000
                    b =    4.905451          beta  =   90.000000
                    c =    4.905451          gamma =   90.000000

                       Current cell volume =  118.042072       A**3

                           -------------------------------
                                     Cell Contents
                           -------------------------------
                         Total number of ions in cell =    2
                      Total number of species in cell =    1
                        Max number of any one species =    2

            xxxxxxxxxxxxxxxxxxxxxxxxxxxxxxxxxxxxxxxxxxxxxxxxxxxxxxxxxxxx
            x  Element    Atom        Fractional coordinates of atoms  x
            x            Number           u          v          w      x
            x----------------------------------------------------------x
            x  Ca           1         0.000000   0.000000   0.000000   x
            x  Ca           2         0.500000   0.500000   0.500000   x
            xxxxxxxxxxxxxxxxxxxxxxxxxxxxxxxxxxxxxxxxxxxxxxxxxxxxxxxxxxxx


                         No user defined ionic velocities

                           -------------------------------
                                   Details of Species
                           -------------------------------

                               Mass of species in AMU
                                    Ca   40.0780000

                          Electric Quadrupole Moment (Barn)
                                    Ca   -0.0408000 Isotope 43

                          Files used for pseudopotentials:
                                    Ca Pseudopotential generated on-the-fly

                           -------------------------------
                              k-Points For BZ Sampling
                           -------------------------------
                       MP grid size for SCF calculation is  8  8  8
                         Number of kpoints used =          20

             +++++++++++++++++++++++++++++++++++++++++++++++++++++++
             +  Number       Fractional coordinates        Weight  +
             +-----------------------------------------------------+
             +     1  -0.437500  -0.437500   0.062500   0.0468750  +
             +     2  -0.312500  -0.437500  -0.062500   0.0937500  +
             +     3  -0.312500  -0.312500  -0.437500   0.0468750  +
             +     4  -0.312500  -0.312500  -0.312500   0.0156250  +
             +     5  -0.312500  -0.312500  -0.187500   0.0468750  +
             +     6  -0.312500  -0.312500  -0.062500   0.0468750  +
             +     7  -0.312500  -0.187500  -0.187500   0.0468750  +
             +     8  -0.187500  -0.187500  -0.437500   0.0468750  +
             +     9  -0.187500  -0.187500  -0.187500   0.0156250  +
             +    10   0.062500  -0.437500  -0.187500   0.0937500  +
             +    11   0.062500  -0.437500  -0.062500   0.0468750  +
             +    12   0.062500  -0.312500  -0.187500   0.0937500  +
             +    13   0.062500  -0.312500  -0.062500   0.0468750  +
             +    14   0.062500  -0.187500  -0.187500   0.0468750  +
             +    15   0.062500  -0.187500  -0.062500   0.0468750  +
             +    16   0.062500   0.062500   0.062500   0.0156250  +
             +    17   0.437500  -0.437500  -0.437500   0.0156250  +
             +    18   0.437500  -0.437500   0.312500   0.0468750  +
             +    19   0.437500   0.187500   0.437500   0.0468750  +
             +    20   0.437500   0.312500   0.187500   0.0937500  +
             +++++++++++++++++++++++++++++++++++++++++++++++++++++++

                           -------------------------------
                               Symmetry and Constraints
                           -------------------------------

                      Number of symmetry operations   =          48
                      Number of ionic constraints     =           3
                      Maximum deviation from symmetry = 0.600744E-15     ANG
               Point group of crystal =    32: Oh, m-3m, 4/m -3 2/m
           Set iprint > 1 for details on symmetry rotations/translations

                          Centre of mass is constrained
             Set iprint > 1 for details of linear ionic constraints

                         Number of cell constraints= 5
                         Cell constraints are:  1 1 1 0 0 0

                         External pressure/stress (GPa)
                          0.00000   0.00000   0.00000
                                    0.00000   0.00000
                                              0.00000
  
+---------------- MEMORY AND SCRATCH DISK ESTIMATES PER NODE -----------------+
|                                                     Memory          Disk    |
| Model and support data                              159.3 MB         0.0 MB |
| Electronic energy minimisation requirements          50.1 MB         0.0 MB |
|                                               ----------------------------- |
| Approx. total storage required per node             209.5 MB         0.0 MB |
|                                                                             |
| Requirements will fluctuate during execution and may exceed these estimates |
+-----------------------------------------------------------------------------+
------------------------------------------------------------------------ <-- SCF
SCF loop      Energy           Fermi           Energy gain       Timer   <-- SCF
                               energy          per atom          (sec)   <-- SCF
------------------------------------------------------------------------ <-- SCF
Initial  -1.74063400E+003  0.00000000E+000                        10.19  <-- SCF
      1  -1.97179326E+003  4.81576099E+000   1.15579629E+002      16.27  <-- SCF
      2  -2.00606648E+003  2.35081772E+000   1.71366121E+001      20.29  <-- SCF
      3  -2.00702808E+003  2.10659336E+000   4.80797245E-001      25.89  <-- SCF
      4  -2.00706574E+003  2.10463739E+000   1.88319568E-002      31.50  <-- SCF
      5  -2.00707250E+003  2.09622213E+000   3.38217362E-003      37.35  <-- SCF
      6  -2.00707336E+003  2.09204646E+000   4.25582456E-004      42.64  <-- SCF
      7  -2.00707339E+003  2.09086519E+000   1.59846468E-005      47.36  <-- SCF
      8  -2.00707339E+003  2.09066976E+000   2.08088305E-006      50.64  <-- SCF
      9  -2.00707339E+003  2.09062164E+000   2.68054516E-007      53.70  <-- SCF
------------------------------------------------------------------------ <-- SCF
 
Final energy, E             =  -2007.071434674     eV
Final free energy (E-TS)    =  -2007.073392830     eV
(energies not corrected for finite basis set)
 
NB est. 0K energy (E-0.5TS)      =  -2007.072413752     eV
 

Writing model to Ca.check

 ***************** Symmetrised Forces *****************
 *                                                    *
 *            Cartesian components (eV/A)             *
 * -------------------------------------------------- *
 *                   x            y            z      *
 *                                                    *
 * Ca        1      0.00000      0.00000      0.00000 *
 * Ca        2      0.00000      0.00000      0.00000 *
 *                                                    *
 ******************************************************

 Pseudo atomic calculation performed for Ca 3s2 3p6 4s2

 Converged in 19 iterations to a total energy of -1001.2130 eV

Charge spilling parameter for spin component 1 = 2.67%

     Atomic Populations (Mulliken)
     -----------------------------
Species   Ion     s      p      d      f     Total  Charge (e)
==============================================================
  Ca       1     3.33   6.00   0.67   0.00  10.00    -0.00
  Ca       2     3.33   6.00   0.67   0.00  10.00     0.00
==============================================================

            Bond              Population      Length (A)
============================================================
============================================================


Writing model to Ca.check

Writing analysis data to Ca.castep_bin
 
 A BibTeX formatted list of references used in this run has been written to 
 Ca.bib
 
Initialisation time =      8.53 s
Calculation time    =     48.24 s
Finalisation time   =      2.01 s
Total time          =     58.78 s
Peak Memory Use     = 269932 kB
 +-------------------------------------------------+
 |                                                 |
 |      CCC   AA    SSS  TTTTT  EEEEE  PPPP        |
 |     C     A  A  S       T    E      P   P       |
 |     C     AAAA   SS     T    EEE    PPPP        |
 |     C     A  A     S    T    E      P           |
 |      CCC  A  A  SSS     T    EEEEE  P           |
 |                                                 |
 +-------------------------------------------------+
 |                                                 |
 | Welcome to Academic Release CASTEP version 6.11 |
 | Ab Initio Total Energy Program                  |
 |                                                 |
 | Authors:                                        |
 | M. Segall, M. Probert, C. Pickard, P. Hasnip,   |
 | S. Clark, K. Refson, J. R. Yates, M. Payne      |
 |                                                 |
 | Contributors:                                   |
 | P. Lindan, P. Haynes, J. White, V. Milman,      |
 | N. Govind, M. Gibson, P. Tulip, V. Cocula,      |
 | B. Montanari, D. Quigley, M. Glover,            |
 | L. Bernasconi, A. Perlov, M. Plummer,           |
 | E. McNellis, J. Meyer, J. Gale, D. Jochym       |
 | J. Aarons, B. Walker, R. Gillen                 |
 |                                                 |
 | Copyright (c) 2000 - 2012                       |
 |                                                 |
 |     Distributed under the terms of an           |
 |     Agreement between the United Kingdom        |
 |     Car-Parrinello (UKCP) Consortium,           |
 |     Daresbury Laboratory and Accelrys, Inc.     |
 |                                                 |
 | Please cite                                     |
 |                                                 |
 |     "First principles methods using CASTEP"     |
 |                                                 |
 |         Zeitschrift fuer Kristallographie       |
 |           220(5-6) pp. 567-570 (2005)           |
 |                                                 |
 | S. J. Clark, M. D. Segall, C. J. Pickard,       |
 | P. J. Hasnip, M. J. Probert, K. Refson,         |
 | M. C. Payne                                     |
 |                                                 |
 |       in all publications arising from          |
 |              your use of CASTEP                 |
 |                                                 |
 +-------------------------------------------------+


 Compiled for linux_x86_64_gfortran on Tue Jul 23 08:36:46 2013
 from source code version 17dc085fd1b9+ Castep61_branch 2013-03-13
 using intermediate optimisation, default FFTs and default LAPACK and BLAS.


 Atomic calculation performed for Ca: 1s2 2s2 2p6 3s2 3p6 4s2

 Converged in 54 iterations to an ae energy of -18512.579 eV

   ============================================================                
   | Pseudopotential Report - Date of generation 30-03-2015   |                
   ------------------------------------------------------------                
   | Element: Ca Ionic charge: 10.00 Level of theory: PBE     |                
   |                                                          |                
   |               Reference Electronic Structure             |                
   |         Orbital         Occupation         Energy        |                
   |            3s              2.000           -1.731        |                
   |            3p              6.000           -1.029        |                
   |            4s              2.000           -0.138        |                
   |                                                          |                
   |                 Pseudopotential Definition               |                
   |        Beta     l      e      Rc     scheme   norm       |                
   |          1      0   -1.731   2.005     qc      0         |                
   |          2      0   -0.138   2.005     qc      0         |                
   |          3      1   -1.029   2.005     qc      0         |                
   |          4      1    0.250   2.005     qc      0         |                
   |          5      2    0.000   2.005     qc      0         |                
   |          6      2    1.000   2.005     qc      0         |                
   |         loc     3    0.000   1.601     pn      0         |                
   |                                                          |                
   | Augmentation charge Rinner = 1.401                       |                
   | Partial core correction Rc = 1.401                       |                
   ------------------------------------------------------------                
   | "3|1.6|2.0|1.4|7|9|10|30U:40U:31:32U=0U=1.0"             |                
   ------------------------------------------------------------                
   |      Author: Chris J. Pickard, Cambridge University      |                
   ============================================================                

 Pseudo atomic calculation performed for Ca 3s2 3p6 4s2

 Converged in 19 iterations to a total energy of -1001.2130 eV

 Calculation not parallelised.

 ************************************ Title ************************************
 

 ***************************** General Parameters ******************************
  
 output verbosity                               : normal  (1)
 write checkpoint data to                       : Ca.check
 type of calculation                            : single point energy
 stress calculation                             : off
 density difference calculation                 : off
 electron localisation func (ELF) calculation   : off
 Hirshfeld analysis                             : off
 unlimited duration calculation
 timing information                             : on
 memory usage estimate                          : on
 write final potential to formatted file        : off
 write final density to formatted file          : off
 write BibTeX reference list                    : on
  
 output         length unit                     : A
 output           mass unit                     : amu
 output           time unit                     : ps
 output         charge unit                     : e
 output         energy unit                     : eV
 output          force unit                     : eV/A
 output       velocity unit                     : A/ps
 output       pressure unit                     : GPa
 output     inv_length unit                     : 1/A
 output      frequency unit                     : cm-1
 output force constant unit                     : eV/A**2
 output         volume unit                     : A**3
 output   IR intensity unit                     : (D/A)**2/amu
 output         dipole unit                     : D
 output         efield unit                     : eV/A/e
 output        entropy unit                     : J/mol/K
  
 wavefunctions paging                           : none
 data distribution                              : optimal for this architecture
 optimization strategy                          : maximize speed(+++)

 *********************** Exchange-Correlation Parameters ***********************
  
 using functional                               : Perdew Wang (1991)
 Divergence correction                          : off
 DFT+D: Semi-empirical dispersion correction    : off

 ************************* Pseudopotential Parameters **************************
  
 pseudopotential representation                 : reciprocal space
 <beta|phi> representation                      : reciprocal space

 **************************** Basis Set Parameters *****************************
  
 plane wave basis set cut-off                   :   700.0000   eV
 finite basis set correction                    : none

 **************************** Electronic Parameters ****************************
  
 number of  electrons                           :  20.00    
 net charge of system                           :  0.000    
 net spin   of system                           :  0.000    
 number of  up  spins                           :  10.00    
 number of down spins                           :  10.00    
 treating system as non-spin-polarized
 number of bands                                :         14

 ********************* Electronic Minimization Parameters **********************
  
 Method: Treating system as metallic with density mixing treatment of electrons,
         and number of  SD  steps               :          1
         and number of  CG  steps               :          4
  
 total energy / atom convergence tol.           : 0.1000E-04   eV
 eigen-energy convergence tolerance             : 0.1000E-05   eV
 max force / atom convergence tol.              : ignored
 convergence tolerance window                   :          3   cycles
 max. number of SCF cycles                      :         30
 number of fixed-spin iterations                :         10
 smearing scheme                                : Gaussian
 smearing width                                 : 0.4000E-01   eV
 Fermi energy convergence tolerance             : 0.1000E-06   eV
 periodic dipole correction                     : NONE

 ************************** Density Mixing Parameters **************************
  
 density-mixing scheme                          : Broyden
 max. length of mixing history                  :          7
 charge density mixing amplitude                : 0.8000    
 cut-off energy for mixing                      :  700.0       eV

 *********************** Population Analysis Parameters ************************
  
 Population analysis with cutoff                :  3.000       A

 *******************************************************************************
  

                           -------------------------------
                                      Unit Cell
                           -------------------------------
        Real Lattice(A)                      Reciprocal Lattice(1/A)
   4.8054510   0.0000000   0.0000000        1.3075121  -0.0000000  -0.0000000
   0.0000000   4.8054510   0.0000000        0.0000000   1.3075121  -0.0000000
   0.0000000   0.0000000   4.8054510        0.0000000   0.0000000   1.3075121

                       Lattice parameters(A)       Cell Angles
                    a =    4.805451          alpha =   90.000000
                    b =    4.805451          beta  =   90.000000
                    c =    4.805451          gamma =   90.000000

                       Current cell volume =  110.969201       A**3

                           -------------------------------
                                     Cell Contents
                           -------------------------------
                         Total number of ions in cell =    2
                      Total number of species in cell =    1
                        Max number of any one species =    2

            xxxxxxxxxxxxxxxxxxxxxxxxxxxxxxxxxxxxxxxxxxxxxxxxxxxxxxxxxxxx
            x  Element    Atom        Fractional coordinates of atoms  x
            x            Number           u          v          w      x
            x----------------------------------------------------------x
            x  Ca           1         0.000000   0.000000   0.000000   x
            x  Ca           2         0.500000   0.500000   0.500000   x
            xxxxxxxxxxxxxxxxxxxxxxxxxxxxxxxxxxxxxxxxxxxxxxxxxxxxxxxxxxxx


                         No user defined ionic velocities

                           -------------------------------
                                   Details of Species
                           -------------------------------

                               Mass of species in AMU
                                    Ca   40.0780000

                          Electric Quadrupole Moment (Barn)
                                    Ca   -0.0408000 Isotope 43

                          Files used for pseudopotentials:
                                    Ca Pseudopotential generated on-the-fly

                           -------------------------------
                              k-Points For BZ Sampling
                           -------------------------------
                       MP grid size for SCF calculation is  8  8  8
                         Number of kpoints used =          20

             +++++++++++++++++++++++++++++++++++++++++++++++++++++++
             +  Number       Fractional coordinates        Weight  +
             +-----------------------------------------------------+
             +     1  -0.437500  -0.187500   0.187500   0.0468750  +
             +     2  -0.312500  -0.312500  -0.312500   0.0156250  +
             +     3  -0.312500  -0.312500  -0.187500   0.0468750  +
             +     4  -0.312500  -0.312500  -0.062500   0.0468750  +
             +     5  -0.187500  -0.437500  -0.312500   0.0937500  +
             +     6  -0.187500  -0.187500  -0.187500   0.0156250  +
             +     7   0.062500  -0.437500  -0.312500   0.0937500  +
             +     8   0.062500  -0.437500  -0.187500   0.0937500  +
             +     9   0.062500  -0.437500  -0.062500   0.0468750  +
             +    10   0.062500  -0.312500  -0.187500   0.0937500  +
             +    11   0.062500  -0.312500  -0.062500   0.0468750  +
             +    12   0.062500  -0.187500  -0.187500   0.0468750  +
             +    13   0.062500  -0.187500  -0.062500   0.0468750  +
             +    14   0.062500   0.062500   0.062500   0.0156250  +
             +    15   0.187500   0.437500  -0.437500   0.0468750  +
             +    16   0.312500   0.187500   0.187500   0.0468750  +
             +    17   0.312500   0.312500  -0.437500   0.0468750  +
             +    18   0.437500   0.437500  -0.062500   0.0468750  +
             +    19   0.437500   0.437500   0.312500   0.0468750  +
             +    20   0.437500   0.437500   0.437500   0.0156250  +
             +++++++++++++++++++++++++++++++++++++++++++++++++++++++

                           -------------------------------
                               Symmetry and Constraints
                           -------------------------------

                      Number of symmetry operations   =          48
                      Number of ionic constraints     =           3
                      Maximum deviation from symmetry = 0.588498E-15     ANG
               Point group of crystal =    32: Oh, m-3m, 4/m -3 2/m
           Set iprint > 1 for details on symmetry rotations/translations

                          Centre of mass is constrained
             Set iprint > 1 for details of linear ionic constraints

                         Number of cell constraints= 5
                         Cell constraints are:  1 1 1 0 0 0

                         External pressure/stress (GPa)
                          0.00000   0.00000   0.00000
                                    0.00000   0.00000
                                              0.00000
  
+---------------- MEMORY AND SCRATCH DISK ESTIMATES PER NODE -----------------+
|                                                     Memory          Disk    |
| Model and support data                              157.1 MB         0.0 MB |
| Electronic energy minimisation requirements          47.5 MB         0.0 MB |
|                                               ----------------------------- |
| Approx. total storage required per node             204.6 MB         0.0 MB |
|                                                                             |
| Requirements will fluctuate during execution and may exceed these estimates |
+-----------------------------------------------------------------------------+
------------------------------------------------------------------------ <-- SCF
SCF loop      Energy           Fermi           Energy gain       Timer   <-- SCF
                               energy          per atom          (sec)   <-- SCF
------------------------------------------------------------------------ <-- SCF
Initial  -1.74464673E+003  0.00000000E+000                        10.19  <-- SCF
      1  -1.97400576E+003  5.27950085E+000   1.14679517E+002      16.05  <-- SCF
      2  -2.00622435E+003  2.60746241E+000   1.61092954E+001      19.96  <-- SCF
      3  -2.00716749E+003  2.36572641E+000   4.71568127E-001      25.24  <-- SCF
      4  -2.00720042E+003  2.36906506E+000   1.64650945E-002      30.57  <-- SCF
      5  -2.00720723E+003  2.36126090E+000   3.40305449E-003      36.28  <-- SCF
      6  -2.00720828E+003  2.35702726E+000   5.25742672E-004      41.11  <-- SCF
      7  -2.00720831E+003  2.35564249E+000   1.43923893E-005      45.75  <-- SCF
      8  -2.00720831E+003  2.35545187E+000   1.64740071E-006      48.79  <-- SCF
      9  -2.00720831E+003  2.35541213E+000   5.98050164E-008      51.71  <-- SCF
------------------------------------------------------------------------ <-- SCF
 
Final energy, E             =  -2007.206196303     eV
Final free energy (E-TS)    =  -2007.208310823     eV
(energies not corrected for finite basis set)
 
NB est. 0K energy (E-0.5TS)      =  -2007.207253563     eV
 

Writing model to Ca.check

 ***************** Symmetrised Forces *****************
 *                                                    *
 *            Cartesian components (eV/A)             *
 * -------------------------------------------------- *
 *                   x            y            z      *
 *                                                    *
 * Ca        1      0.00000      0.00000      0.00000 *
 * Ca        2      0.00000      0.00000      0.00000 *
 *                                                    *
 ******************************************************

 Pseudo atomic calculation performed for Ca 3s2 3p6 4s2

 Converged in 19 iterations to a total energy of -1001.2130 eV

Charge spilling parameter for spin component 1 = 2.58%

     Atomic Populations (Mulliken)
     -----------------------------
Species   Ion     s      p      d      f     Total  Charge (e)
==============================================================
  Ca       1     3.31   6.00   0.69   0.00  10.00     0.00
  Ca       2     3.31   6.00   0.69   0.00  10.00    -0.00
==============================================================

            Bond              Population      Length (A)
============================================================
============================================================


Writing model to Ca.check

Writing analysis data to Ca.castep_bin
 
 A BibTeX formatted list of references used in this run has been written to 
 Ca.bib
 
Initialisation time =      8.53 s
Calculation time    =     46.17 s
Finalisation time   =      1.94 s
Total time          =     56.64 s
Peak Memory Use     = 264500 kB
 +-------------------------------------------------+
 |                                                 |
 |      CCC   AA    SSS  TTTTT  EEEEE  PPPP        |
 |     C     A  A  S       T    E      P   P       |
 |     C     AAAA   SS     T    EEE    PPPP        |
 |     C     A  A     S    T    E      P           |
 |      CCC  A  A  SSS     T    EEEEE  P           |
 |                                                 |
 +-------------------------------------------------+
 |                                                 |
 | Welcome to Academic Release CASTEP version 6.11 |
 | Ab Initio Total Energy Program                  |
 |                                                 |
 | Authors:                                        |
 | M. Segall, M. Probert, C. Pickard, P. Hasnip,   |
 | S. Clark, K. Refson, J. R. Yates, M. Payne      |
 |                                                 |
 | Contributors:                                   |
 | P. Lindan, P. Haynes, J. White, V. Milman,      |
 | N. Govind, M. Gibson, P. Tulip, V. Cocula,      |
 | B. Montanari, D. Quigley, M. Glover,            |
 | L. Bernasconi, A. Perlov, M. Plummer,           |
 | E. McNellis, J. Meyer, J. Gale, D. Jochym       |
 | J. Aarons, B. Walker, R. Gillen                 |
 |                                                 |
 | Copyright (c) 2000 - 2012                       |
 |                                                 |
 |     Distributed under the terms of an           |
 |     Agreement between the United Kingdom        |
 |     Car-Parrinello (UKCP) Consortium,           |
 |     Daresbury Laboratory and Accelrys, Inc.     |
 |                                                 |
 | Please cite                                     |
 |                                                 |
 |     "First principles methods using CASTEP"     |
 |                                                 |
 |         Zeitschrift fuer Kristallographie       |
 |           220(5-6) pp. 567-570 (2005)           |
 |                                                 |
 | S. J. Clark, M. D. Segall, C. J. Pickard,       |
 | P. J. Hasnip, M. J. Probert, K. Refson,         |
 | M. C. Payne                                     |
 |                                                 |
 |       in all publications arising from          |
 |              your use of CASTEP                 |
 |                                                 |
 +-------------------------------------------------+


 Compiled for linux_x86_64_gfortran on Tue Jul 23 08:36:46 2013
 from source code version 17dc085fd1b9+ Castep61_branch 2013-03-13
 using intermediate optimisation, default FFTs and default LAPACK and BLAS.


 Atomic calculation performed for Ca: 1s2 2s2 2p6 3s2 3p6 4s2

 Converged in 54 iterations to an ae energy of -18512.579 eV

   ============================================================                
   | Pseudopotential Report - Date of generation 30-03-2015   |                
   ------------------------------------------------------------                
   | Element: Ca Ionic charge: 10.00 Level of theory: PBE     |                
   |                                                          |                
   |               Reference Electronic Structure             |                
   |         Orbital         Occupation         Energy        |                
   |            3s              2.000           -1.731        |                
   |            3p              6.000           -1.029        |                
   |            4s              2.000           -0.138        |                
   |                                                          |                
   |                 Pseudopotential Definition               |                
   |        Beta     l      e      Rc     scheme   norm       |                
   |          1      0   -1.731   2.005     qc      0         |                
   |          2      0   -0.138   2.005     qc      0         |                
   |          3      1   -1.029   2.005     qc      0         |                
   |          4      1    0.250   2.005     qc      0         |                
   |          5      2    0.000   2.005     qc      0         |                
   |          6      2    1.000   2.005     qc      0         |                
   |         loc     3    0.000   1.601     pn      0         |                
   |                                                          |                
   | Augmentation charge Rinner = 1.401                       |                
   | Partial core correction Rc = 1.401                       |                
   ------------------------------------------------------------                
   | "3|1.6|2.0|1.4|7|9|10|30U:40U:31:32U=0U=1.0"             |                
   ------------------------------------------------------------                
   |      Author: Chris J. Pickard, Cambridge University      |                
   ============================================================                

 Pseudo atomic calculation performed for Ca 3s2 3p6 4s2

 Converged in 19 iterations to a total energy of -1001.2130 eV

 Calculation not parallelised.

 ************************************ Title ************************************
 

 ***************************** General Parameters ******************************
  
 output verbosity                               : normal  (1)
 write checkpoint data to                       : Ca.check
 type of calculation                            : single point energy
 stress calculation                             : off
 density difference calculation                 : off
 electron localisation func (ELF) calculation   : off
 Hirshfeld analysis                             : off
 unlimited duration calculation
 timing information                             : on
 memory usage estimate                          : on
 write final potential to formatted file        : off
 write final density to formatted file          : off
 write BibTeX reference list                    : on
  
 output         length unit                     : A
 output           mass unit                     : amu
 output           time unit                     : ps
 output         charge unit                     : e
 output         energy unit                     : eV
 output          force unit                     : eV/A
 output       velocity unit                     : A/ps
 output       pressure unit                     : GPa
 output     inv_length unit                     : 1/A
 output      frequency unit                     : cm-1
 output force constant unit                     : eV/A**2
 output         volume unit                     : A**3
 output   IR intensity unit                     : (D/A)**2/amu
 output         dipole unit                     : D
 output         efield unit                     : eV/A/e
 output        entropy unit                     : J/mol/K
  
 wavefunctions paging                           : none
 data distribution                              : optimal for this architecture
 optimization strategy                          : maximize speed(+++)

 *********************** Exchange-Correlation Parameters ***********************
  
 using functional                               : Perdew Wang (1991)
 Divergence correction                          : off
 DFT+D: Semi-empirical dispersion correction    : off

 ************************* Pseudopotential Parameters **************************
  
 pseudopotential representation                 : reciprocal space
 <beta|phi> representation                      : reciprocal space

 **************************** Basis Set Parameters *****************************
  
 plane wave basis set cut-off                   :   700.0000   eV
 finite basis set correction                    : none

 **************************** Electronic Parameters ****************************
  
 number of  electrons                           :  20.00    
 net charge of system                           :  0.000    
 net spin   of system                           :  0.000    
 number of  up  spins                           :  10.00    
 number of down spins                           :  10.00    
 treating system as non-spin-polarized
 number of bands                                :         14

 ********************* Electronic Minimization Parameters **********************
  
 Method: Treating system as metallic with density mixing treatment of electrons,
         and number of  SD  steps               :          1
         and number of  CG  steps               :          4
  
 total energy / atom convergence tol.           : 0.1000E-04   eV
 eigen-energy convergence tolerance             : 0.1000E-05   eV
 max force / atom convergence tol.              : ignored
 convergence tolerance window                   :          3   cycles
 max. number of SCF cycles                      :         30
 number of fixed-spin iterations                :         10
 smearing scheme                                : Gaussian
 smearing width                                 : 0.4000E-01   eV
 Fermi energy convergence tolerance             : 0.1000E-06   eV
 periodic dipole correction                     : NONE

 ************************** Density Mixing Parameters **************************
  
 density-mixing scheme                          : Broyden
 max. length of mixing history                  :          7
 charge density mixing amplitude                : 0.8000    
 cut-off energy for mixing                      :  700.0       eV

 *********************** Population Analysis Parameters ************************
  
 Population analysis with cutoff                :  3.000       A

 *******************************************************************************
  

                           -------------------------------
                                      Unit Cell
                           -------------------------------
        Real Lattice(A)                      Reciprocal Lattice(1/A)
   4.7054510   0.0000000   0.0000000        1.3352993  -0.0000000  -0.0000000
   0.0000000   4.7054510   0.0000000        0.0000000   1.3352993  -0.0000000
   0.0000000   0.0000000   4.7054510        0.0000000   0.0000000   1.3352993

                       Lattice parameters(A)       Cell Angles
                    a =    4.705451          alpha =   90.000000
                    b =    4.705451          beta  =   90.000000
                    c =    4.705451          gamma =   90.000000

                       Current cell volume =  104.184657       A**3

                           -------------------------------
                                     Cell Contents
                           -------------------------------
                         Total number of ions in cell =    2
                      Total number of species in cell =    1
                        Max number of any one species =    2

            xxxxxxxxxxxxxxxxxxxxxxxxxxxxxxxxxxxxxxxxxxxxxxxxxxxxxxxxxxxx
            x  Element    Atom        Fractional coordinates of atoms  x
            x            Number           u          v          w      x
            x----------------------------------------------------------x
            x  Ca           1         0.000000   0.000000   0.000000   x
            x  Ca           2         0.500000   0.500000   0.500000   x
            xxxxxxxxxxxxxxxxxxxxxxxxxxxxxxxxxxxxxxxxxxxxxxxxxxxxxxxxxxxx


                         No user defined ionic velocities

                           -------------------------------
                                   Details of Species
                           -------------------------------

                               Mass of species in AMU
                                    Ca   40.0780000

                          Electric Quadrupole Moment (Barn)
                                    Ca   -0.0408000 Isotope 43

                          Files used for pseudopotentials:
                                    Ca Pseudopotential generated on-the-fly

                           -------------------------------
                              k-Points For BZ Sampling
                           -------------------------------
                       MP grid size for SCF calculation is  8  8  8
                         Number of kpoints used =          20

             +++++++++++++++++++++++++++++++++++++++++++++++++++++++
             +  Number       Fractional coordinates        Weight  +
             +-----------------------------------------------------+
             +     1  -0.437500  -0.437500  -0.187500   0.0468750  +
             +     2  -0.437500   0.312500  -0.187500   0.0937500  +
             +     3  -0.312500  -0.437500  -0.062500   0.0937500  +
             +     4  -0.312500  -0.312500  -0.437500   0.0468750  +
             +     5  -0.312500  -0.312500  -0.312500   0.0156250  +
             +     6  -0.312500  -0.312500  -0.187500   0.0468750  +
             +     7  -0.312500  -0.312500  -0.062500   0.0468750  +
             +     8  -0.312500  -0.187500  -0.187500   0.0468750  +
             +     9  -0.187500  -0.187500  -0.187500   0.0156250  +
             +    10   0.062500  -0.437500  -0.187500   0.0937500  +
             +    11   0.062500  -0.437500  -0.062500   0.0468750  +
             +    12   0.062500  -0.312500  -0.187500   0.0937500  +
             +    13   0.062500  -0.312500  -0.062500   0.0468750  +
             +    14   0.062500  -0.187500  -0.187500   0.0468750  +
             +    15   0.062500  -0.187500  -0.062500   0.0468750  +
             +    16   0.062500   0.062500   0.062500   0.0156250  +
             +    17   0.437500  -0.187500   0.187500   0.0468750  +
             +    18   0.437500   0.437500  -0.437500   0.0156250  +
             +    19   0.437500   0.437500  -0.312500   0.0468750  +
             +    20   0.437500   0.437500   0.062500   0.0468750  +
             +++++++++++++++++++++++++++++++++++++++++++++++++++++++

                           -------------------------------
                               Symmetry and Constraints
                           -------------------------------

                      Number of symmetry operations   =          48
                      Number of ionic constraints     =           3
                      Maximum deviation from symmetry = 0.576252E-15     ANG
               Point group of crystal =    32: Oh, m-3m, 4/m -3 2/m
           Set iprint > 1 for details on symmetry rotations/translations

                          Centre of mass is constrained
             Set iprint > 1 for details of linear ionic constraints

                         Number of cell constraints= 5
                         Cell constraints are:  1 1 1 0 0 0

                         External pressure/stress (GPa)
                          0.00000   0.00000   0.00000
                                    0.00000   0.00000
                                              0.00000
  
+---------------- MEMORY AND SCRATCH DISK ESTIMATES PER NODE -----------------+
|                                                     Memory          Disk    |
| Model and support data                              129.3 MB         0.0 MB |
| Electronic energy minimisation requirements          43.6 MB         0.0 MB |
|                                               ----------------------------- |
| Approx. total storage required per node             173.0 MB         0.0 MB |
|                                                                             |
| Requirements will fluctuate during execution and may exceed these estimates |
+-----------------------------------------------------------------------------+
------------------------------------------------------------------------ <-- SCF
SCF loop      Energy           Fermi           Energy gain       Timer   <-- SCF
                               energy          per atom          (sec)   <-- SCF
------------------------------------------------------------------------ <-- SCF
Initial  -1.73922050E+003  0.00000000E+000                        10.02  <-- SCF
      1  -1.97121020E+003  5.20805961E+000   1.15994849E+002      14.91  <-- SCF
      2  -2.00630257E+003  2.88478467E+000   1.75461848E+001      18.22  <-- SCF
      3  -2.00727728E+003  2.64312849E+000   4.87356368E-001      22.85  <-- SCF
      4  -2.00731216E+003  2.65250394E+000   1.74416472E-002      27.39  <-- SCF
      5  -2.00731902E+003  2.64483111E+000   3.42753192E-003      32.06  <-- SCF
      6  -2.00732021E+003  2.64114475E+000   5.95668765E-004      36.12  <-- SCF
      7  -2.00732023E+003  2.63975358E+000   1.08064069E-005      39.90  <-- SCF
      8  -2.00732023E+003  2.63951808E+000   1.01247917E-006      42.34  <-- SCF
      9  -2.00732023E+003  2.63947309E+000   1.57979853E-007      44.71  <-- SCF
------------------------------------------------------------------------ <-- SCF
 
Final energy, E             =  -2007.317897590     eV
Final free energy (E-TS)    =  -2007.320231487     eV
(energies not corrected for finite basis set)
 
NB est. 0K energy (E-0.5TS)      =  -2007.319064539     eV
 

Writing model to Ca.check

 ***************** Symmetrised Forces *****************
 *                                                    *
 *            Cartesian components (eV/A)             *
 * -------------------------------------------------- *
 *                   x            y            z      *
 *                                                    *
 * Ca        1      0.00000      0.00000      0.00000 *
 * Ca        2      0.00000      0.00000      0.00000 *
 *                                                    *
 ******************************************************

 Pseudo atomic calculation performed for Ca 3s2 3p6 4s2

 Converged in 19 iterations to a total energy of -1001.2130 eV

Charge spilling parameter for spin component 1 = 2.48%

     Atomic Populations (Mulliken)
     -----------------------------
Species   Ion     s      p      d      f     Total  Charge (e)
==============================================================
  Ca       1     3.29   6.00   0.71   0.00  10.00    -0.00
  Ca       2     3.29   6.00   0.71   0.00  10.00     0.00
==============================================================

            Bond              Population      Length (A)
============================================================
============================================================


Writing model to Ca.check

Writing analysis data to Ca.castep_bin
 
 A BibTeX formatted list of references used in this run has been written to 
 Ca.bib
 
Initialisation time =      8.50 s
Calculation time    =     38.96 s
Finalisation time   =      1.85 s
Total time          =     49.30 s
Peak Memory Use     = 231480 kB
 +-------------------------------------------------+
 |                                                 |
 |      CCC   AA    SSS  TTTTT  EEEEE  PPPP        |
 |     C     A  A  S       T    E      P   P       |
 |     C     AAAA   SS     T    EEE    PPPP        |
 |     C     A  A     S    T    E      P           |
 |      CCC  A  A  SSS     T    EEEEE  P           |
 |                                                 |
 +-------------------------------------------------+
 |                                                 |
 | Welcome to Academic Release CASTEP version 6.11 |
 | Ab Initio Total Energy Program                  |
 |                                                 |
 | Authors:                                        |
 | M. Segall, M. Probert, C. Pickard, P. Hasnip,   |
 | S. Clark, K. Refson, J. R. Yates, M. Payne      |
 |                                                 |
 | Contributors:                                   |
 | P. Lindan, P. Haynes, J. White, V. Milman,      |
 | N. Govind, M. Gibson, P. Tulip, V. Cocula,      |
 | B. Montanari, D. Quigley, M. Glover,            |
 | L. Bernasconi, A. Perlov, M. Plummer,           |
 | E. McNellis, J. Meyer, J. Gale, D. Jochym       |
 | J. Aarons, B. Walker, R. Gillen                 |
 |                                                 |
 | Copyright (c) 2000 - 2012                       |
 |                                                 |
 |     Distributed under the terms of an           |
 |     Agreement between the United Kingdom        |
 |     Car-Parrinello (UKCP) Consortium,           |
 |     Daresbury Laboratory and Accelrys, Inc.     |
 |                                                 |
 | Please cite                                     |
 |                                                 |
 |     "First principles methods using CASTEP"     |
 |                                                 |
 |         Zeitschrift fuer Kristallographie       |
 |           220(5-6) pp. 567-570 (2005)           |
 |                                                 |
 | S. J. Clark, M. D. Segall, C. J. Pickard,       |
 | P. J. Hasnip, M. J. Probert, K. Refson,         |
 | M. C. Payne                                     |
 |                                                 |
 |       in all publications arising from          |
 |              your use of CASTEP                 |
 |                                                 |
 +-------------------------------------------------+


 Compiled for linux_x86_64_gfortran on Tue Jul 23 08:36:46 2013
 from source code version 17dc085fd1b9+ Castep61_branch 2013-03-13
 using intermediate optimisation, default FFTs and default LAPACK and BLAS.


 Atomic calculation performed for Ca: 1s2 2s2 2p6 3s2 3p6 4s2

 Converged in 54 iterations to an ae energy of -18512.579 eV

   ============================================================                
   | Pseudopotential Report - Date of generation 30-03-2015   |                
   ------------------------------------------------------------                
   | Element: Ca Ionic charge: 10.00 Level of theory: PBE     |                
   |                                                          |                
   |               Reference Electronic Structure             |                
   |         Orbital         Occupation         Energy        |                
   |            3s              2.000           -1.731        |                
   |            3p              6.000           -1.029        |                
   |            4s              2.000           -0.138        |                
   |                                                          |                
   |                 Pseudopotential Definition               |                
   |        Beta     l      e      Rc     scheme   norm       |                
   |          1      0   -1.731   2.005     qc      0         |                
   |          2      0   -0.138   2.005     qc      0         |                
   |          3      1   -1.029   2.005     qc      0         |                
   |          4      1    0.250   2.005     qc      0         |                
   |          5      2    0.000   2.005     qc      0         |                
   |          6      2    1.000   2.005     qc      0         |                
   |         loc     3    0.000   1.601     pn      0         |                
   |                                                          |                
[...]

 Pseudo atomic calculation performed for Ca 3s2 3p6 4s2

 Converged in 19 iterations to a total energy of -1001.2130 eV

Charge spilling parameter for spin component 1 = 0.16%

     Atomic Populations (Mulliken)
     -----------------------------
Species   Ion     s      p      d      f     Total  Charge (e)
==============================================================
  Ca       1     2.02   5.78   2.20   0.00  10.00    -0.00
  Ca       2     2.02   5.78   2.20   0.00  10.00     0.00
==============================================================

            Bond              Population      Length (A)
============================================================
         Ca 1 -- Ca 2            -11.79        2.34299
============================================================


Writing model to Ca.check

Writing analysis data to Ca.castep_bin
 
 A BibTeX formatted list of references used in this run has been written to 
 Ca.bib
 
Initialisation time =      8.34 s
Calculation time    =      8.71 s
Finalisation time   =      1.11 s
Total time          =     18.16 s
Peak Memory Use     = 199912 kB
 +-------------------------------------------------+
 |                                                 |
 |      CCC   AA    SSS  TTTTT  EEEEE  PPPP        |
 |     C     A  A  S       T    E      P   P       |
 |     C     AAAA   SS     T    EEE    PPPP        |
 |     C     A  A     S    T    E      P           |
 |      CCC  A  A  SSS     T    EEEEE  P           |
 |                                                 |
 +-------------------------------------------------+
 |                                                 |
 | Welcome to Academic Release CASTEP version 6.11 |
 | Ab Initio Total Energy Program                  |
 |                                                 |
 | Authors:                                        |
 | M. Segall, M. Probert, C. Pickard, P. Hasnip,   |
 | S. Clark, K. Refson, J. R. Yates, M. Payne      |
 |                                                 |
 | Contributors:                                   |
 | P. Lindan, P. Haynes, J. White, V. Milman,      |
 | N. Govind, M. Gibson, P. Tulip, V. Cocula,      |
 | B. Montanari, D. Quigley, M. Glover,            |
 | L. Bernasconi, A. Perlov, M. Plummer,           |
 | E. McNellis, J. Meyer, J. Gale, D. Jochym       |
 | J. Aarons, B. Walker, R. Gillen                 |
 |                                                 |
 | Copyright (c) 2000 - 2012                       |
 |                                                 |
 |     Distributed under the terms of an           |
 |     Agreement between the United Kingdom        |
 |     Car-Parrinello (UKCP) Consortium,           |
 |     Daresbury Laboratory and Accelrys, Inc.     |
 |                                                 |
 | Please cite                                     |
 |                                                 |
 |     "First principles methods using CASTEP"     |
 |                                                 |
 |         Zeitschrift fuer Kristallographie       |
 |           220(5-6) pp. 567-570 (2005)           |
 |                                                 |
 | S. J. Clark, M. D. Segall, C. J. Pickard,       |
 | P. J. Hasnip, M. J. Probert, K. Refson,         |
 | M. C. Payne                                     |
 |                                                 |
 |       in all publications arising from          |
 |              your use of CASTEP                 |
 |                                                 |
 +-------------------------------------------------+


 Compiled for linux_x86_64_gfortran on Tue Jul 23 08:36:46 2013
 from source code version 17dc085fd1b9+ Castep61_branch 2013-03-13
 using intermediate optimisation, default FFTs and default LAPACK and BLAS.


 Atomic calculation performed for Ca: 1s2 2s2 2p6 3s2 3p6 4s2

 Converged in 54 iterations to an ae energy of -18512.579 eV

   ============================================================                
   | Pseudopotential Report - Date of generation 30-03-2015   |                
   ------------------------------------------------------------                
   | Element: Ca Ionic charge: 10.00 Level of theory: PBE     |                
   |                                                          |                
   |               Reference Electronic Structure             |                
   |         Orbital         Occupation         Energy        |                
   |            3s              2.000           -1.731        |                
   |            3p              6.000           -1.029        |                
   |            4s              2.000           -0.138        |                
   |                                                          |                
   |                 Pseudopotential Definition               |                
   |        Beta     l      e      Rc     scheme   norm       |                
   |          1      0   -1.731   2.005     qc      0         |                
   |          2      0   -0.138   2.005     qc      0         |                
   |          3      1   -1.029   2.005     qc      0         |                
   |          4      1    0.250   2.005     qc      0         |                
   |          5      2    0.000   2.005     qc      0         |                
   |          6      2    1.000   2.005     qc      0         |                
   |         loc     3    0.000   1.601     pn      0         |                
   |                                                          |                
   | Augmentation charge Rinner = 1.401                       |                
   | Partial core correction Rc = 1.401                       |                
   ------------------------------------------------------------                
   | "3|1.6|2.0|1.4|7|9|10|30U:40U:31:32U=0U=1.0"             |                
   ------------------------------------------------------------                
   |      Author: Chris J. Pickard, Cambridge University      |                
   ============================================================                

 Pseudo atomic calculation performed for Ca 3s2 3p6 4s2

 Converged in 19 iterations to a total energy of -1001.2130 eV

 Calculation not parallelised.

 ************************************ Title ************************************
 

 ***************************** General Parameters ******************************
  
 output verbosity                               : normal  (1)
 write checkpoint data to                       : Ca.check
 type of calculation                            : single point energy
 stress calculation                             : off
 density difference calculation                 : off
 electron localisation func (ELF) calculation   : off
 Hirshfeld analysis                             : off
 unlimited duration calculation
 timing information                             : on
 memory usage estimate                          : on
 write final potential to formatted file        : off
 write final density to formatted file          : off
 write BibTeX reference list                    : on
  
 output         length unit                     : A
 output           mass unit                     : amu
 output           time unit                     : ps
 output         charge unit                     : e
 output         energy unit                     : eV
 output          force unit                     : eV/A
 output       velocity unit                     : A/ps
 output       pressure unit                     : GPa
 output     inv_length unit                     : 1/A
 output      frequency unit                     : cm-1
 output force constant unit                     : eV/A**2
 output         volume unit                     : A**3
 output   IR intensity unit                     : (D/A)**2/amu
 output         dipole unit                     : D
 output         efield unit                     : eV/A/e
 output        entropy unit                     : J/mol/K
  
 wavefunctions paging                           : none
 data distribution                              : optimal for this architecture
 optimization strategy                          : maximize speed(+++)

 *********************** Exchange-Correlation Parameters ***********************
  
 using functional                               : Perdew Wang (1991)
 Divergence correction                          : off
 DFT+D: Semi-empirical dispersion correction    : off

 ************************* Pseudopotential Parameters **************************
  
 pseudopotential representation                 : reciprocal space
 <beta|phi> representation                      : reciprocal space

 **************************** Basis Set Parameters *****************************
  
 plane wave basis set cut-off                   :   700.0000   eV
 finite basis set correction                    : none

 **************************** Electronic Parameters ****************************
  
 number of  electrons                           :  20.00    
 net charge of system                           :  0.000    
 net spin   of system                           :  0.000    
 number of  up  spins                           :  10.00    
 number of down spins                           :  10.00    
 treating system as non-spin-polarized
 number of bands                                :         14

 ********************* Electronic Minimization Parameters **********************
  
 Method: Treating system as metallic with density mixing treatment of electrons,
         and number of  SD  steps               :          1
         and number of  CG  steps               :          4
  
 total energy / atom convergence tol.           : 0.1000E-04   eV
 eigen-energy convergence tolerance             : 0.1000E-05   eV
 max force / atom convergence tol.              : ignored
 convergence tolerance window                   :          3   cycles
 max. number of SCF cycles                      :         30
 number of fixed-spin iterations                :         10
 smearing scheme                                : Gaussian
 smearing width                                 : 0.4000E-01   eV
 Fermi energy convergence tolerance             : 0.1000E-06   eV
 periodic dipole correction                     : NONE

 ************************** Density Mixing Parameters **************************
  
 density-mixing scheme                          : Broyden
 max. length of mixing history                  :          7
 charge density mixing amplitude                : 0.8000    
 cut-off energy for mixing                      :  700.0       eV

 *********************** Population Analysis Parameters ************************
  
 Population analysis with cutoff                :  3.000       A

 *******************************************************************************
  

                           -------------------------------
                                      Unit Cell
                           -------------------------------
        Real Lattice(A)                      Reciprocal Lattice(1/A)
   2.6054510   0.0000000   0.0000000        2.4115538  -0.0000000  -0.0000000
   0.0000000   2.6054510   0.0000000        0.0000000   2.4115538  -0.0000000
   0.0000000   0.0000000   2.6054510        0.0000000   0.0000000   2.4115538

                       Lattice parameters(A)       Cell Angles
                    a =    2.605451          alpha =   90.000000
                    b =    2.605451          beta  =   90.000000
                    c =    2.605451          gamma =   90.000000

                       Current cell volume =   17.686778       A**3

                           -------------------------------
                                     Cell Contents
                           -------------------------------
                         Total number of ions in cell =    2
                      Total number of species in cell =    1
                        Max number of any one species =    2

            xxxxxxxxxxxxxxxxxxxxxxxxxxxxxxxxxxxxxxxxxxxxxxxxxxxxxxxxxxxx
            x  Element    Atom        Fractional coordinates of atoms  x
            x            Number           u          v          w      x
            x----------------------------------------------------------x
            x  Ca           1         0.000000   0.000000   0.000000   x
            x  Ca           2         0.500000   0.500000   0.500000   x
            xxxxxxxxxxxxxxxxxxxxxxxxxxxxxxxxxxxxxxxxxxxxxxxxxxxxxxxxxxxx


                         No user defined ionic velocities

                           -------------------------------
                                   Details of Species
                           -------------------------------

                               Mass of species in AMU
                                    Ca   40.0780000

                          Electric Quadrupole Moment (Barn)
                                    Ca   -0.0408000 Isotope 43

                          Files used for pseudopotentials:
                                    Ca Pseudopotential generated on-the-fly

                           -------------------------------
                              k-Points For BZ Sampling
                           -------------------------------
                       MP grid size for SCF calculation is  8  8  8
                         Number of kpoints used =          20

             +++++++++++++++++++++++++++++++++++++++++++++++++++++++
             +  Number       Fractional coordinates        Weight  +
             +-----------------------------------------------------+
             +     1  -0.437500  -0.312500  -0.312500   0.0468750  +
             +     2  -0.437500  -0.187500  -0.187500   0.0468750  +
             +     3  -0.312500  -0.312500  -0.187500   0.0468750  +
             +     4  -0.187500  -0.437500  -0.312500   0.0937500  +
             +     5  -0.187500  -0.312500  -0.187500   0.0468750  +
             +     6  -0.187500  -0.187500  -0.187500   0.0156250  +
             +     7  -0.187500  -0.062500  -0.187500   0.0468750  +
             +     8  -0.062500   0.437500   0.437500   0.0468750  +
             +     9   0.062500  -0.437500  -0.187500   0.0937500  +
             +    10   0.062500  -0.437500  -0.062500   0.0468750  +
             +    11   0.062500  -0.312500  -0.312500   0.0468750  +
             +    12   0.062500  -0.312500  -0.187500   0.0937500  +
             +    13   0.062500  -0.312500  -0.062500   0.0468750  +
             +    14   0.062500  -0.187500  -0.062500   0.0468750  +
             +    15   0.062500  -0.062500  -0.062500   0.0156250  +
             +    16   0.062500   0.312500  -0.437500   0.0937500  +
             +    17   0.187500   0.437500  -0.437500   0.0468750  +
             +    18   0.312500  -0.312500  -0.312500   0.0156250  +
             +    19   0.437500   0.437500  -0.312500   0.0468750  +
             +    20   0.437500   0.437500   0.437500   0.0156250  +
             +++++++++++++++++++++++++++++++++++++++++++++++++++++++

                           -------------------------------
                               Symmetry and Constraints
                           -------------------------------

                      Number of symmetry operations   =          48
                      Number of ionic constraints     =           3
                      Maximum deviation from symmetry = 0.319076E-15     ANG
               Point group of crystal =    32: Oh, m-3m, 4/m -3 2/m
           Set iprint > 1 for details on symmetry rotations/translations

                          Centre of mass is constrained
             Set iprint > 1 for details of linear ionic constraints

                         Number of cell constraints= 5
                         Cell constraints are:  1 1 1 0 0 0

                         External pressure/stress (GPa)
                          0.00000   0.00000   0.00000
                                    0.00000   0.00000
                                              0.00000
  
+---------------- MEMORY AND SCRATCH DISK ESTIMATES PER NODE -----------------+
|                                                     Memory          Disk    |
| Model and support data                               44.0 MB         0.0 MB |
| Electronic energy minimisation requirements           7.8 MB         0.0 MB |
|                                               ----------------------------- |
| Approx. total storage required per node              51.8 MB         0.0 MB |
|                                                                             |
| Requirements will fluctuate during execution and may exceed these estimates |
+-----------------------------------------------------------------------------+
------------------------------------------------------------------------ <-- SCF
SCF loop      Energy           Fermi           Energy gain       Timer   <-- SCF
                               energy          per atom          (sec)   <-- SCF
------------------------------------------------------------------------ <-- SCF
Initial  -1.79103255E+003  0.00000000E+000                         9.81  <-- SCF
      1  -1.96054655E+003  2.29958277E+001   8.47570018E+001      10.43  <-- SCF
      2  -1.99152466E+003  2.19618635E+001   1.54890537E+001      11.03  <-- SCF
      3  -1.99170314E+003  2.19601452E+001   8.92426283E-002      11.48  <-- SCF
      4  -1.99169561E+003  2.18884997E+001  -3.76505800E-003      12.08  <-- SCF
      5  -1.99169567E+003  2.19184797E+001   2.72518568E-005      12.70  <-- SCF
      6  -1.99169585E+003  2.19202643E+001   9.17114315E-005      13.22  <-- SCF
      7  -1.99169584E+003  2.19208365E+001  -4.14451536E-006      13.59  <-- SCF
      8  -1.99169585E+003  2.19207278E+001   4.45894181E-006      13.95  <-- SCF
------------------------------------------------------------------------ <-- SCF
 
Final energy, E             =  -1991.689568122     eV
Final free energy (E-TS)    =  -1991.695853011     eV
(energies not corrected for finite basis set)
 
NB est. 0K energy (E-0.5TS)      =  -1991.692710566     eV
 

Writing model to Ca.check

 ***************** Symmetrised Forces *****************
 *                                                    *
 *            Cartesian components (eV/A)             *
 * -------------------------------------------------- *
 *                   x            y            z      *
 *                                                    *
 * Ca        1      0.00000      0.00000      0.00000 *
 * Ca        2      0.00000      0.00000      0.00000 *
 *                                                    *
 ******************************************************

 Pseudo atomic calculation performed for Ca 3s2 3p6 4s2

 Converged in 19 iterations to a total energy of -1001.2130 eV

Charge spilling parameter for spin component 1 = 0.18%

     Atomic Populations (Mulliken)
     -----------------------------
Species   Ion     s      p      d      f     Total  Charge (e)
==============================================================
  Ca       1     1.99   5.73   2.28   0.00  10.00     0.00
  Ca       2     1.99   5.73   2.28   0.00  10.00    -0.00
==============================================================

            Bond              Population      Length (A)
============================================================
         Ca 1 -- Ca 2            -15.48        2.25639
============================================================


Writing model to Ca.check

Writing analysis data to Ca.castep_bin
 
 A BibTeX formatted list of references used in this run has been written to 
 Ca.bib
 
Initialisation time =      8.42 s
Calculation time    =      6.56 s
Finalisation time   =      0.67 s
Total time          =     15.65 s
Peak Memory Use     = 199916 kB
