 +-------------------------------------------------+
 |                                                 |
 |      CCC   AA    SSS  TTTTT  EEEEE  PPPP        |
 |     C     A  A  S       T    E      P   P       |
 |     C     AAAA   SS     T    EEE    PPPP        |
 |     C     A  A     S    T    E      P           |
 |      CCC  A  A  SSS     T    EEEEE  P           |
 |                                                 |
 +-------------------------------------------------+
 |                                                 |
 | Welcome to Academic Release CASTEP version 6.11 |
 | Ab Initio Total Energy Program                  |
 |                                                 |
 | Authors:                                        |
 | M. Segall, M. Probert, C. Pickard, P. Hasnip,   |
 | S. Clark, K. Refson, J. R. Yates, M. Payne      |
 |                                                 |
 | Contributors:                                   |
 | P. Lindan, P. Haynes, J. White, V. Milman,      |
 | N. Govind, M. Gibson, P. Tulip, V. Cocula,      |
 | B. Montanari, D. Quigley, M. Glover,            |
 | L. Bernasconi, A. Perlov, M. Plummer,           |
 | E. McNellis, J. Meyer, J. Gale, D. Jochym       |
 | J. Aarons, B. Walker, R. Gillen                 |
 |                                                 |
 | Copyright (c) 2000 - 2012                       |
 |                                                 |
 |     Distributed under the terms of an           |
 |     Agreement between the United Kingdom        |
 |     Car-Parrinello (UKCP) Consortium,           |
 |     Daresbury Laboratory and Accelrys, Inc.     |
 |                                                 |
 | Please cite                                     |
 |                                                 |
 |     "First principles methods using CASTEP"     |
 |                                                 |
 |         Zeitschrift fuer Kristallographie       |
 |           220(5-6) pp. 567-570 (2005)           |
 |                                                 |
 | S. J. Clark, M. D. Segall, C. J. Pickard,       |
 | P. J. Hasnip, M. J. Probert, K. Refson,         |
 | M. C. Payne                                     |
 |                                                 |
 |       in all publications arising from          |
 |              your use of CASTEP                 |
 |                                                 |
 +-------------------------------------------------+


 Compiled for linux_x86_64_gfortran on Tue Jul 23 08:36:46 2013
 from source code version 17dc085fd1b9+ Castep61_branch 2013-03-13
 using intermediate optimisation, default FFTs and default LAPACK and BLAS.


 Atomic calculation performed for Ca: 1s2 2s2 2p6 3s2 3p6 4s2

 Converged in 54 iterations to an ae energy of -18512.579 eV

   ============================================================                
   | Pseudopotential Report - Date of generation 30-03-2015   |                
   ------------------------------------------------------------                
   | Element: Ca Ionic charge: 10.00 Level of theory: PBE     |                
   |                                                          |                
   |               Reference Electronic Structure             |                
   |         Orbital         Occupation         Energy        |                
   |            3s              2.000           -1.731        |                
   |            3p              6.000           -1.029        |                
   |            4s              2.000           -0.138        |                
   |                                                          |                
   |                 Pseudopotential Definition               |                
   |        Beta     l      e      Rc     scheme   norm       |                
   |          1      0   -1.731   2.005     qc      0         |                
   |          2      0   -0.138   2.005     qc      0         |                
   |          3      1   -1.029   2.005     qc      0         |                
   |          4      1    0.250   2.005     qc      0         |                
   |          5      2    0.000   2.005     qc      0         |                
   |          6      2    1.000   2.005     qc      0         |                
   |         loc     3    0.000   1.601     pn      0         |                
   |                                                          |                
   | Augmentation charge Rinner = 1.401                       |                
   | Partial core correction Rc = 1.401                       |                
   ------------------------------------------------------------                
   | "3|1.6|2.0|1.4|7|9|10|30U:40U:31:32U=0U=1.0"             |                
   ------------------------------------------------------------                
   |      Author: Chris J. Pickard, Cambridge University      |                
   ============================================================                

 Pseudo atomic calculation performed for Ca 3s2 3p6 4s2

 Converged in 19 iterations to a total energy of -1001.2130 eV

 Calculation not parallelised.

 ************************************ Title ************************************
 

 ***************************** General Parameters ******************************
  
 output verbosity                               : normal  (1)
 write checkpoint data to                       : Ca.check
 type of calculation                            : single point energy
 stress calculation                             : off
 density difference calculation                 : off
 electron localisation func (ELF) calculation   : off
 Hirshfeld analysis                             : off
 unlimited duration calculation
 timing information                             : on
 memory usage estimate                          : on
 write final potential to formatted file        : off
 write final density to formatted file          : off
 write BibTeX reference list                    : on
  
 output         length unit                     : A
 output           mass unit                     : amu
 output           time unit                     : ps
 output         charge unit                     : e
 output         energy unit                     : eV
 output          force unit                     : eV/A
 output       velocity unit                     : A/ps
 output       pressure unit                     : GPa
 output     inv_length unit                     : 1/A
 output      frequency unit                     : cm-1
 output force constant unit                     : eV/A**2
 output         volume unit                     : A**3
 output   IR intensity unit                     : (D/A)**2/amu
 output         dipole unit                     : D
 output         efield unit                     : eV/A/e
 output        entropy unit                     : J/mol/K
  
 wavefunctions paging                           : none
 data distribution                              : optimal for this architecture
 optimization strategy                          : maximize speed(+++)

 *********************** Exchange-Correlation Parameters ***********************
  
 using functional                               : Perdew Wang (1991)
 Divergence correction                          : off
 DFT+D: Semi-empirical dispersion correction    : off

 ************************* Pseudopotential Parameters **************************
  
 pseudopotential representation                 : reciprocal space
 <beta|phi> representation                      : reciprocal space

 **************************** Basis Set Parameters *****************************
  
 plane wave basis set cut-off                   :   700.0000   eV
 finite basis set correction                    : none

 **************************** Electronic Parameters ****************************
  
 number of  electrons                           :  40.00    
 net charge of system                           :  0.000    
 net spin   of system                           :  0.000    
 number of  up  spins                           :  20.00    
 number of down spins                           :  20.00    
 treating system as non-spin-polarized
 number of bands                                :         24

 ********************* Electronic Minimization Parameters **********************
  
 Method: Treating system as metallic with density mixing treatment of electrons,
         and number of  SD  steps               :          1
         and number of  CG  steps               :          4
  
 total energy / atom convergence tol.           : 0.1000E-04   eV
 eigen-energy convergence tolerance             : 0.1000E-05   eV
 max force / atom convergence tol.              : ignored
 convergence tolerance window                   :          3   cycles
 max. number of SCF cycles                      :         30
 number of fixed-spin iterations                :         10
 smearing scheme                                : Gaussian
 smearing width                                 : 0.4000E-01   eV
 Fermi energy convergence tolerance             : 0.1000E-06   eV
 periodic dipole correction                     : NONE

 ************************** Density Mixing Parameters **************************
  
 density-mixing scheme                          : Broyden
 max. length of mixing history                  :          7
 charge density mixing amplitude                : 0.8000    
 cut-off energy for mixing                      :  700.0       eV

 *********************** Population Analysis Parameters ************************
  
 Population analysis with cutoff                :  3.000       A

 *******************************************************************************
  

                           -------------------------------
                                      Unit Cell
                           -------------------------------
        Real Lattice(A)                      Reciprocal Lattice(1/A)
   9.1153560   0.0000000   0.0000000        0.6892968  -0.0000000  -0.0000000
   0.0000000   9.1153560   0.0000000        0.0000000   0.6892968  -0.0000000
   0.0000000   0.0000000   4.7461709        0.0000000   0.0000000   1.3238430

                       Lattice parameters(A)       Cell Angles
                    a =    9.115356          alpha =   90.000000
                    b =    9.115356          beta  =   90.000000
                    c =    4.746171          gamma =   90.000000

                       Current cell volume =  394.357985       A**3

                           -------------------------------
                                     Cell Contents
                           -------------------------------
                         Total number of ions in cell =    4
                      Total number of species in cell =    1
                        Max number of any one species =    4

            xxxxxxxxxxxxxxxxxxxxxxxxxxxxxxxxxxxxxxxxxxxxxxxxxxxxxxxxxxxx
            x  Element    Atom        Fractional coordinates of atoms  x
            x            Number           u          v          w      x
            x----------------------------------------------------------x
            x  Ca           1         0.000000   0.000000   0.000000   x
            x  Ca           2         0.500000   0.500000   0.500000   x
            x  Ca           3         0.500000   0.000000   0.750000   x
            x  Ca           4         0.000000   0.500000   0.250000   x
            xxxxxxxxxxxxxxxxxxxxxxxxxxxxxxxxxxxxxxxxxxxxxxxxxxxxxxxxxxxx


                         No user defined ionic velocities

                           -------------------------------
                                   Details of Species
                           -------------------------------

                               Mass of species in AMU
                                    Ca   40.0780000

                          Electric Quadrupole Moment (Barn)
                                    Ca   -0.0408000 Isotope 43

                          Files used for pseudopotentials:
                                    Ca Pseudopotential generated on-the-fly

                           -------------------------------
                              k-Points For BZ Sampling
                           -------------------------------
                       MP grid size for SCF calculation is  4  4  4
                         Number of kpoints used =           6

             +++++++++++++++++++++++++++++++++++++++++++++++++++++++
             +  Number       Fractional coordinates        Weight  +
             +-----------------------------------------------------+
             +     1  -0.375000  -0.375000  -0.125000   0.1250000  +
             +     2  -0.375000  -0.375000   0.375000   0.1250000  +
             +     3  -0.125000   0.375000   0.375000   0.2500000  +
             +     4   0.125000  -0.375000  -0.125000   0.2500000  +
             +     5   0.125000  -0.125000  -0.375000   0.1250000  +
             +     6   0.125000  -0.125000  -0.125000   0.1250000  +
             +++++++++++++++++++++++++++++++++++++++++++++++++++++++

                           -------------------------------
                               Symmetry and Constraints
                           -------------------------------

                      Number of symmetry operations   =          16
                      Number of ionic constraints     =           3
                      Maximum deviation from symmetry = 0.111627E-14     ANG
               Point group of crystal =    15: D4h, 4/mmm, 4/m 2/m 2/m
           Set iprint > 1 for details on symmetry rotations/translations

                          Centre of mass is constrained
             Set iprint > 1 for details of linear ionic constraints

                         Number of cell constraints= 4
                         Cell constraints are:  1 1 3 0 0 0

                         External pressure/stress (GPa)
                          0.00000   0.00000   0.00000
                                    0.00000   0.00000
                                              0.00000
  
+---------------- MEMORY AND SCRATCH DISK ESTIMATES PER NODE -----------------+
|                                                     Memory          Disk    |
| Model and support data                              373.9 MB         0.0 MB |
| Electronic energy minimisation requirements          95.9 MB         0.0 MB |
|                                               ----------------------------- |
| Approx. total storage required per node             469.9 MB         0.0 MB |
|                                                                             |
| Requirements will fluctuate during execution and may exceed these estimates |
+-----------------------------------------------------------------------------+
------------------------------------------------------------------------ <-- SCF
SCF loop      Energy           Fermi           Energy gain       Timer   <-- SCF
                               energy          per atom          (sec)   <-- SCF
------------------------------------------------------------------------ <-- SCF
Initial  -3.47962322E+003  0.00000000E+000                        10.78  <-- SCF
      1  -3.93970916E+003  3.47799188E+000   1.15021483E+002      27.68  <-- SCF
      2  -4.00632032E+003  9.11032687E-001   1.66527900E+001      37.73  <-- SCF
      3  -4.01067573E+003  4.84568871E-001   1.08885384E+000      51.29  <-- SCF
      4  -4.01090845E+003  3.82676884E-001   5.81808940E-002      66.74  <-- SCF
      5  -4.01093388E+003  3.43406243E-001   6.35625888E-003      82.16  <-- SCF
      6  -4.01093533E+003  3.31441762E-001   3.61774618E-004      96.11  <-- SCF
      7  -4.01093561E+003  3.30827255E-001   7.05653903E-005     108.21  <-- SCF
      8  -4.01093566E+003  3.29926108E-001   1.18569769E-005     118.27  <-- SCF
      9  -4.01093566E+003  3.29776462E-001   7.60574673E-007     127.83  <-- SCF
     10  -4.01093566E+003  3.29711263E-001   2.16998327E-007     136.98  <-- SCF
     11  -4.01093566E+003  3.29720772E-001   8.76742716E-008     145.85  <-- SCF
------------------------------------------------------------------------ <-- SCF
 
Final energy, E             =  -4010.927953240     eV
Final free energy (E-TS)    =  -4010.935660840     eV
(energies not corrected for finite basis set)
 
NB est. 0K energy (E-0.5TS)      =  -4010.931807040     eV
 

Writing model to Ca.check

 ***************** Symmetrised Forces *****************
 *                                                    *
 *            Cartesian components (eV/A)             *
 * -------------------------------------------------- *
 *                   x            y            z      *
 *                                                    *
 * Ca        1      0.00000      0.00000     -0.00000 *
 * Ca        2      0.00000      0.00000     -0.00000 *
 * Ca        3      0.00000      0.00000     -0.00007 *
 * Ca        4      0.00000      0.00000      0.00007 *
 *                                                    *
 ******************************************************

 Pseudo atomic calculation performed for Ca 3s2 3p6 4s2

 Converged in 19 iterations to a total energy of -1001.2130 eV

Charge spilling parameter for spin component 1 = 3.58%

     Atomic Populations (Mulliken)
     -----------------------------
Species   Ion     s      p      d      f     Total  Charge (e)
==============================================================
  Ca       1     3.57   6.00   0.43   0.00  10.00     0.00
  Ca       2     3.57   6.00   0.43   0.00  10.00    -0.00
  Ca       3     3.57   6.00   0.43   0.00  10.00     0.00
  Ca       4     3.57   6.00   0.43   0.00  10.00     0.00
==============================================================

            Bond              Population      Length (A)
============================================================
============================================================


Writing model to Ca.check

Writing analysis data to Ca.castep_bin
 
 A BibTeX formatted list of references used in this run has been written to 
 Ca.bib
 
Initialisation time =      8.69 s
Calculation time    =    144.98 s
Finalisation time   =      3.74 s
Total time          =    157.40 s
Peak Memory Use     = 563192 kB
 +-------------------------------------------------+
 |                                                 |
 |      CCC   AA    SSS  TTTTT  EEEEE  PPPP        |
 |     C     A  A  S       T    E      P   P       |
 |     C     AAAA   SS     T    EEE    PPPP        |
 |     C     A  A     S    T    E      P           |
 |      CCC  A  A  SSS     T    EEEEE  P           |
 |                                                 |
 +-------------------------------------------------+
 |                                                 |
 | Welcome to Academic Release CASTEP version 6.11 |
 | Ab Initio Total Energy Program                  |
 |                                                 |
 | Authors:                                        |
 | M. Segall, M. Probert, C. Pickard, P. Hasnip,   |
 | S. Clark, K. Refson, J. R. Yates, M. Payne      |
 |                                                 |
 | Contributors:                                   |
 | P. Lindan, P. Haynes, J. White, V. Milman,      |
 | N. Govind, M. Gibson, P. Tulip, V. Cocula,      |
 | B. Montanari, D. Quigley, M. Glover,            |
 | L. Bernasconi, A. Perlov, M. Plummer,           |
 | E. McNellis, J. Meyer, J. Gale, D. Jochym       |
 | J. Aarons, B. Walker, R. Gillen                 |
 |                                                 |
 | Copyright (c) 2000 - 2012                       |
 |                                                 |
 |     Distributed under the terms of an           |
 |     Agreement between the United Kingdom        |
 |     Car-Parrinello (UKCP) Consortium,           |
 |     Daresbury Laboratory and Accelrys, Inc.     |
 |                                                 |
 | Please cite                                     |
 |                                                 |
 |     "First principles methods using CASTEP"     |
 |                                                 |
 |         Zeitschrift fuer Kristallographie       |
 |           220(5-6) pp. 567-570 (2005)           |
 |                                                 |
 | S. J. Clark, M. D. Segall, C. J. Pickard,       |
 | P. J. Hasnip, M. J. Probert, K. Refson,         |
 | M. C. Payne                                     |
 |                                                 |
 |       in all publications arising from          |
 |              your use of CASTEP                 |
 |                                                 |
 +-------------------------------------------------+


 Compiled for linux_x86_64_gfortran on Tue Jul 23 08:36:46 2013
 from source code version 17dc085fd1b9+ Castep61_branch 2013-03-13
 using intermediate optimisation, default FFTs and default LAPACK and BLAS.


 Atomic calculation performed for Ca: 1s2 2s2 2p6 3s2 3p6 4s2

 Converged in 54 iterations to an ae energy of -18512.579 eV

   ============================================================                
   | Pseudopotential Report - Date of generation 30-03-2015   |                
   ------------------------------------------------------------                
   | Element: Ca Ionic charge: 10.00 Level of theory: PBE     |                
   |                                                          |                
   |               Reference Electronic Structure             |                
   |         Orbital         Occupation         Energy        |                
   |            3s              2.000           -1.731        |                
   |            3p              6.000           -1.029        |                
   |            4s              2.000           -0.138        |                
   |                                                          |                
   |                 Pseudopotential Definition               |                
   |        Beta     l      e      Rc     scheme   norm       |                
   |          1      0   -1.731   2.005     qc      0         |                
   |          2      0   -0.138   2.005     qc      0         |                
   |          3      1   -1.029   2.005     qc      0         |                
   |          4      1    0.250   2.005     qc      0         |                
   |          5      2    0.000   2.005     qc      0         |                
   |          6      2    1.000   2.005     qc      0         |                
   |         loc     3    0.000   1.601     pn      0         |                
   |                                                          |                
   | Augmentation charge Rinner = 1.401                       |                
   | Partial core correction Rc = 1.401                       |                
   ------------------------------------------------------------                
   | "3|1.6|2.0|1.4|7|9|10|30U:40U:31:32U=0U=1.0"             |                
   ------------------------------------------------------------                
   |      Author: Chris J. Pickard, Cambridge University      |                
   ============================================================                

 Pseudo atomic calculation performed for Ca 3s2 3p6 4s2

 Converged in 19 iterations to a total energy of -1001.2130 eV

 Calculation not parallelised.

 ************************************ Title ************************************
 

 ***************************** General Parameters ******************************
  
 output verbosity                               : normal  (1)
 write checkpoint data to                       : Ca.check
 type of calculation                            : single point energy
 stress calculation                             : off
 density difference calculation                 : off
 electron localisation func (ELF) calculation   : off
 Hirshfeld analysis                             : off
 unlimited duration calculation
 timing information                             : on
 memory usage estimate                          : on
 write final potential to formatted file        : off
 write final density to formatted file          : off
 write BibTeX reference list                    : on
  
 output         length unit                     : A
 output           mass unit                     : amu
 output           time unit                     : ps
 output         charge unit                     : e
 output         energy unit                     : eV
 output          force unit                     : eV/A
 output       velocity unit                     : A/ps
 output       pressure unit                     : GPa
 output     inv_length unit                     : 1/A
 output      frequency unit                     : cm-1
 output force constant unit                     : eV/A**2
 output         volume unit                     : A**3
 output   IR intensity unit                     : (D/A)**2/amu
 output         dipole unit                     : D
 output         efield unit                     : eV/A/e
 output        entropy unit                     : J/mol/K
  
 wavefunctions paging                           : none
 data distribution                              : optimal for this architecture
 optimization strategy                          : maximize speed(+++)

 *********************** Exchange-Correlation Parameters ***********************
  
 using functional                               : Perdew Wang (1991)
 Divergence correction                          : off
 DFT+D: Semi-empirical dispersion correction    : off

 ************************* Pseudopotential Parameters **************************
  
 pseudopotential representation                 : reciprocal space
 <beta|phi> representation                      : reciprocal space

 **************************** Basis Set Parameters *****************************
  
 plane wave basis set cut-off                   :   700.0000   eV
 finite basis set correction                    : none

 **************************** Electronic Parameters ****************************
  
 number of  electrons                           :  40.00    
 net charge of system                           :  0.000    
 net spin   of system                           :  0.000    
 number of  up  spins                           :  20.00    
 number of down spins                           :  20.00    
 treating system as non-spin-polarized
 number of bands                                :         24

 ********************* Electronic Minimization Parameters **********************
  
 Method: Treating system as metallic with density mixing treatment of electrons,
         and number of  SD  steps               :          1
         and number of  CG  steps               :          4
  
 total energy / atom convergence tol.           : 0.1000E-04   eV
 eigen-energy convergence tolerance             : 0.1000E-05   eV
 max force / atom convergence tol.              : ignored
 convergence tolerance window                   :          3   cycles
 max. number of SCF cycles                      :         30
 number of fixed-spin iterations                :         10
 smearing scheme                                : Gaussian
 smearing width                                 : 0.4000E-01   eV
 Fermi energy convergence tolerance             : 0.1000E-06   eV
 periodic dipole correction                     : NONE

 ************************** Density Mixing Parameters **************************
  
 density-mixing scheme                          : Broyden
 max. length of mixing history                  :          7
 charge density mixing amplitude                : 0.8000    
 cut-off energy for mixing                      :  700.0       eV

 *********************** Population Analysis Parameters ************************
  
 Population analysis with cutoff                :  3.000       A

 *******************************************************************************
  

                           -------------------------------
                                      Unit Cell
                           -------------------------------
        Real Lattice(A)                      Reciprocal Lattice(1/A)
   9.0153560   0.0000000   0.0000000        0.6969426  -0.0000000  -0.0000000
   0.0000000   9.0153560   0.0000000        0.0000000   0.6969426  -0.0000000
   0.0000000   0.0000000   4.6941030        0.0000000   0.0000000   1.3385274

                       Lattice parameters(A)       Cell Angles
                    a =    9.015356          alpha =   90.000000
                    b =    9.015356          beta  =   90.000000
                    c =    4.694103          gamma =   90.000000

                       Current cell volume =  381.520938       A**3

                           -------------------------------
                                     Cell Contents
                           -------------------------------
                         Total number of ions in cell =    4
                      Total number of species in cell =    1
                        Max number of any one species =    4

            xxxxxxxxxxxxxxxxxxxxxxxxxxxxxxxxxxxxxxxxxxxxxxxxxxxxxxxxxxxx
            x  Element    Atom        Fractional coordinates of atoms  x
            x            Number           u          v          w      x
            x----------------------------------------------------------x
            x  Ca           1         0.000000   0.000000   0.000000   x
            x  Ca           2         0.500000   0.500000   0.500000   x
            x  Ca           3         0.500000   0.000000   0.750000   x
            x  Ca           4         0.000000   0.500000   0.250000   x
            xxxxxxxxxxxxxxxxxxxxxxxxxxxxxxxxxxxxxxxxxxxxxxxxxxxxxxxxxxxx


                         No user defined ionic velocities

                           -------------------------------
                                   Details of Species
                           -------------------------------

                               Mass of species in AMU
                                    Ca   40.0780000

                          Electric Quadrupole Moment (Barn)
                                    Ca   -0.0408000 Isotope 43

                          Files used for pseudopotentials:
                                    Ca Pseudopotential generated on-the-fly

                           -------------------------------
                              k-Points For BZ Sampling
                           -------------------------------
                       MP grid size for SCF calculation is  4  4  4
                         Number of kpoints used =           6

             +++++++++++++++++++++++++++++++++++++++++++++++++++++++
             +  Number       Fractional coordinates        Weight  +
             +-----------------------------------------------------+
             +     1  -0.375000  -0.375000  -0.125000   0.1250000  +
             +     2  -0.375000   0.375000   0.375000   0.1250000  +
             +     3  -0.125000   0.375000  -0.375000   0.2500000  +
             +     4   0.125000  -0.375000  -0.125000   0.2500000  +
             +     5   0.125000  -0.125000  -0.375000   0.1250000  +
             +     6   0.125000  -0.125000  -0.125000   0.1250000  +
             +++++++++++++++++++++++++++++++++++++++++++++++++++++++

                           -------------------------------
                               Symmetry and Constraints
                           -------------------------------

                      Number of symmetry operations   =          16
                      Number of ionic constraints     =           3
                      Maximum deviation from symmetry = 0.110403E-14     ANG
               Point group of crystal =    15: D4h, 4/mmm, 4/m 2/m 2/m
           Set iprint > 1 for details on symmetry rotations/translations

                          Centre of mass is constrained
             Set iprint > 1 for details of linear ionic constraints

                         Number of cell constraints= 4
                         Cell constraints are:  1 1 3 0 0 0

                         External pressure/stress (GPa)
                          0.00000   0.00000   0.00000
                                    0.00000   0.00000
                                              0.00000
  
+---------------- MEMORY AND SCRATCH DISK ESTIMATES PER NODE -----------------+
|                                                     Memory          Disk    |
| Model and support data                              371.8 MB         0.0 MB |
| Electronic energy minimisation requirements          93.4 MB         0.0 MB |
|                                               ----------------------------- |
| Approx. total storage required per node             465.3 MB         0.0 MB |
|                                                                             |
| Requirements will fluctuate during execution and may exceed these estimates |
+-----------------------------------------------------------------------------+
------------------------------------------------------------------------ <-- SCF
SCF loop      Energy           Fermi           Energy gain       Timer   <-- SCF
                               energy          per atom          (sec)   <-- SCF
------------------------------------------------------------------------ <-- SCF
Initial  -3.48100662E+003  0.00000000E+000                        11.05  <-- SCF
      1  -3.94397423E+003  3.60095363E+000   1.15741903E+002      27.79  <-- SCF
      2  -4.00648259E+003  1.03645039E+000   1.56270899E+001      37.84  <-- SCF
      3  -4.01083662E+003  5.12559754E-001   1.08850837E+000      51.17  <-- SCF
      4  -4.01109255E+003  4.58133984E-001   6.39812870E-002      66.35  <-- SCF
      5  -4.01111662E+003  4.26428207E-001   6.01917306E-003      81.62  <-- SCF
      6  -4.01111819E+003  4.14452871E-001   3.90595854E-004      95.41  <-- SCF
      7  -4.01111844E+003  4.13620642E-001   6.32215753E-005     107.21  <-- SCF
      8  -4.01111848E+003  4.12942595E-001   1.03012111E-005     116.82  <-- SCF
      9  -4.01111848E+003  4.12831482E-001   8.34680713E-007     126.13  <-- SCF
     10  -4.01111848E+003  4.12784716E-001   1.70077863E-007     135.22  <-- SCF
     11  -4.01111848E+003  4.12789185E-001   1.32510246E-007     144.16  <-- SCF
------------------------------------------------------------------------ <-- SCF
 
Final energy, E             =  -4011.110510948     eV
Final free energy (E-TS)    =  -4011.118484784     eV
(energies not corrected for finite basis set)
 
NB est. 0K energy (E-0.5TS)      =  -4011.114497866     eV
 

Writing model to Ca.check

 ***************** Symmetrised Forces *****************
 *                                                    *
 *            Cartesian components (eV/A)             *
 * -------------------------------------------------- *
 *                   x            y            z      *
 *                                                    *
 * Ca        1      0.00000      0.00000     -0.00000 *
 * Ca        2      0.00000      0.00000      0.00000 *
 * Ca        3      0.00000      0.00000     -0.00002 *
 * Ca        4      0.00000      0.00000      0.00002 *
 *                                                    *
 ******************************************************

 Pseudo atomic calculation performed for Ca 3s2 3p6 4s2

 Converged in 19 iterations to a total energy of -1001.2130 eV

Charge spilling parameter for spin component 1 = 3.57%

     Atomic Populations (Mulliken)
     -----------------------------
Species   Ion     s      p      d      f     Total  Charge (e)
==============================================================
  Ca       1     3.56   6.00   0.44   0.00  10.00    -0.00
  Ca       2     3.56   6.00   0.44   0.00  10.00     0.00
  Ca       3     3.56   6.00   0.44   0.00  10.00     0.00
  Ca       4     3.56   6.00   0.44   0.00  10.00     0.00
==============================================================

            Bond              Population      Length (A)
============================================================
============================================================


Writing model to Ca.check

Writing analysis data to Ca.castep_bin
 
 A BibTeX formatted list of references used in this run has been written to 
 Ca.bib
 
Initialisation time =      8.93 s
Calculation time    =    142.85 s
Finalisation time   =      2.63 s
Total time          =    154.41 s
Peak Memory Use     = 558088 kB
 +-------------------------------------------------+
 |                                                 |
 |      CCC   AA    SSS  TTTTT  EEEEE  PPPP        |
 |     C     A  A  S       T    E      P   P       |
 |     C     AAAA   SS     T    EEE    PPPP        |
 |     C     A  A     S    T    E      P           |
 |      CCC  A  A  SSS     T    EEEEE  P           |
 |                                                 |
 +-------------------------------------------------+
 |                                                 |
 | Welcome to Academic Release CASTEP version 6.11 |
 | Ab Initio Total Energy Program                  |
 |                                                 |
 | Authors:                                        |
 | M. Segall, M. Probert, C. Pickard, P. Hasnip,   |
 | S. Clark, K. Refson, J. R. Yates, M. Payne      |
 |                                                 |
 | Contributors:                                   |
 | P. Lindan, P. Haynes, J. White, V. Milman,      |
 | N. Govind, M. Gibson, P. Tulip, V. Cocula,      |
 | B. Montanari, D. Quigley, M. Glover,            |
 | L. Bernasconi, A. Perlov, M. Plummer,           |
 | E. McNellis, J. Meyer, J. Gale, D. Jochym       |
 | J. Aarons, B. Walker, R. Gillen                 |
 |                                                 |
 | Copyright (c) 2000 - 2012                       |
 |                                                 |
 |     Distributed under the terms of an           |
 |     Agreement between the United Kingdom        |
 |     Car-Parrinello (UKCP) Consortium,           |
 |     Daresbury Laboratory and Accelrys, Inc.     |
 |                                                 |
 | Please cite                                     |
 |                                                 |
 |     "First principles methods using CASTEP"     |
 |                                                 |
 |         Zeitschrift fuer Kristallographie       |
 |           220(5-6) pp. 567-570 (2005)           |
 |                                                 |
 | S. J. Clark, M. D. Segall, C. J. Pickard,       |
 | P. J. Hasnip, M. J. Probert, K. Refson,         |
 | M. C. Payne                                     |
 |                                                 |
 |       in all publications arising from          |
 |              your use of CASTEP                 |
 |                                                 |
 +-------------------------------------------------+


 Compiled for linux_x86_64_gfortran on Tue Jul 23 08:36:46 2013
 from source code version 17dc085fd1b9+ Castep61_branch 2013-03-13
 using intermediate optimisation, default FFTs and default LAPACK and BLAS.


 Atomic calculation performed for Ca: 1s2 2s2 2p6 3s2 3p6 4s2

 Converged in 54 iterations to an ae energy of -18512.579 eV

   ============================================================                
   | Pseudopotential Report - Date of generation 30-03-2015   |                
   ------------------------------------------------------------                
   | Element: Ca Ionic charge: 10.00 Level of theory: PBE     |                
   |                                                          |                
   |               Reference Electronic Structure             |                
   |         Orbital         Occupation         Energy        |                
   |            3s              2.000           -1.731        |                
   |            3p              6.000           -1.029        |                
   |            4s              2.000           -0.138        |                
   |                                                          |                
   |                 Pseudopotential Definition               |                
   |        Beta     l      e      Rc     scheme   norm       |                
   |          1      0   -1.731   2.005     qc      0         |                
   |          2      0   -0.138   2.005     qc      0         |                
   |          3      1   -1.029   2.005     qc      0         |                
   |          4      1    0.250   2.005     qc      0         |                
   |          5      2    0.000   2.005     qc      0         |                
   |          6      2    1.000   2.005     qc      0         |                
   |         loc     3    0.000   1.601     pn      0         |                
   |                                                          |                
   | Augmentation charge Rinner = 1.401                       |                
   | Partial core correction Rc = 1.401                       |                
   ------------------------------------------------------------                
   | "3|1.6|2.0|1.4|7|9|10|30U:40U:31:32U=0U=1.0"             |                
   ------------------------------------------------------------                
   |      Author: Chris J. Pickard, Cambridge University      |                
   ============================================================                

 Pseudo atomic calculation performed for Ca 3s2 3p6 4s2

 Converged in 19 iterations to a total energy of -1001.2130 eV

 Calculation not parallelised.

 ************************************ Title ************************************
 

 ***************************** General Parameters ******************************
  
 output verbosity                               : normal  (1)
 write checkpoint data to                       : Ca.check
 type of calculation                            : single point energy
 stress calculation                             : off
 density difference calculation                 : off
 electron localisation func (ELF) calculation   : off
 Hirshfeld analysis                             : off
 unlimited duration calculation
 timing information                             : on
 memory usage estimate                          : on
 write final potential to formatted file        : off
 write final density to formatted file          : off
 write BibTeX reference list                    : on
  
 output         length unit                     : A
 output           mass unit                     : amu
 output           time unit                     : ps
 output         charge unit                     : e
 output         energy unit                     : eV
 output          force unit                     : eV/A
 output       velocity unit                     : A/ps
 output       pressure unit                     : GPa
 output     inv_length unit                     : 1/A
 output      frequency unit                     : cm-1
 output force constant unit                     : eV/A**2
 output         volume unit                     : A**3
 output   IR intensity unit                     : (D/A)**2/amu
 output         dipole unit                     : D
 output         efield unit                     : eV/A/e
 output        entropy unit                     : J/mol/K
  
 wavefunctions paging                           : none
 data distribution                              : optimal for this architecture
 optimization strategy                          : maximize speed(+++)

 *********************** Exchange-Correlation Parameters ***********************
  
 using functional                               : Perdew Wang (1991)
 Divergence correction                          : off
 DFT+D: Semi-empirical dispersion correction    : off

 ************************* Pseudopotential Parameters **************************
  
 pseudopotential representation                 : reciprocal space
 <beta|phi> representation                      : reciprocal space

 **************************** Basis Set Parameters *****************************
  
 plane wave basis set cut-off                   :   700.0000   eV
 finite basis set correction                    : none

 **************************** Electronic Parameters ****************************
  
 number of  electrons                           :  40.00    
 net charge of system                           :  0.000    
 net spin   of system                           :  0.000    
 number of  up  spins                           :  20.00    
 number of down spins                           :  20.00    
 treating system as non-spin-polarized
 number of bands                                :         24

 ********************* Electronic Minimization Parameters **********************
  
 Method: Treating system as metallic with density mixing treatment of electrons,
         and number of  SD  steps               :          1
         and number of  CG  steps               :          4
  
 total energy / atom convergence tol.           : 0.1000E-04   eV
 eigen-energy convergence tolerance             : 0.1000E-05   eV
 max force / atom convergence tol.              : ignored
 convergence tolerance window                   :          3   cycles
 max. number of SCF cycles                      :         30
 number of fixed-spin iterations                :         10
 smearing scheme                                : Gaussian
 smearing width                                 : 0.4000E-01   eV
 Fermi energy convergence tolerance             : 0.1000E-06   eV
 periodic dipole correction                     : NONE

 ************************** Density Mixing Parameters **************************
  
 density-mixing scheme                          : Broyden
 max. length of mixing history                  :          7
 charge density mixing amplitude                : 0.8000    
 cut-off energy for mixing                      :  700.0       eV

 *********************** Population Analysis Parameters ************************
  
 Population analysis with cutoff                :  3.000       A

 *******************************************************************************
  

                           -------------------------------
                                      Unit Cell
                           -------------------------------
        Real Lattice(A)                      Reciprocal Lattice(1/A)
   8.9153560   0.0000000   0.0000000        0.7047599  -0.0000000  -0.0000000
   0.0000000   8.9153560   0.0000000        0.0000000   0.7047599  -0.0000000
   0.0000000   0.0000000   4.6420351        0.0000000   0.0000000   1.3535411

                       Lattice parameters(A)       Cell Angles
                    a =    8.915356          alpha =   90.000000
                    b =    8.915356          beta  =   90.000000
                    c =    4.642035          gamma =   90.000000

                       Current cell volume =  368.965537       A**3

                           -------------------------------
                                     Cell Contents
                           -------------------------------
                         Total number of ions in cell =    4
                      Total number of species in cell =    1
                        Max number of any one species =    4

            xxxxxxxxxxxxxxxxxxxxxxxxxxxxxxxxxxxxxxxxxxxxxxxxxxxxxxxxxxxx
            x  Element    Atom        Fractional coordinates of atoms  x
            x            Number           u          v          w      x
            x----------------------------------------------------------x
            x  Ca           1         0.000000   0.000000   0.000000   x
            x  Ca           2         0.500000   0.500000   0.500000   x
            x  Ca           3         0.500000   0.000000   0.750000   x
            x  Ca           4         0.000000   0.500000   0.250000   x
            xxxxxxxxxxxxxxxxxxxxxxxxxxxxxxxxxxxxxxxxxxxxxxxxxxxxxxxxxxxx


                         No user defined ionic velocities

                           -------------------------------
                                   Details of Species
                           -------------------------------

                               Mass of species in AMU
                                    Ca   40.0780000

                          Electric Quadrupole Moment (Barn)
                                    Ca   -0.0408000 Isotope 43

                          Files used for pseudopotentials:
                                    Ca Pseudopotential generated on-the-fly

                           -------------------------------
                              k-Points For BZ Sampling
                           -------------------------------
                       MP grid size for SCF calculation is  4  4  4
                         Number of kpoints used =           6

             +++++++++++++++++++++++++++++++++++++++++++++++++++++++
             +  Number       Fractional coordinates        Weight  +
             +-----------------------------------------------------+
             +     1  -0.375000   0.375000  -0.125000   0.1250000  +
             +     2  -0.375000   0.375000   0.375000   0.1250000  +
             +     3  -0.125000   0.125000  -0.375000   0.1250000  +
             +     4   0.125000  -0.375000  -0.375000   0.2500000  +
             +     5   0.125000  -0.375000  -0.125000   0.2500000  +
             +     6   0.125000  -0.125000  -0.125000   0.1250000  +
             +++++++++++++++++++++++++++++++++++++++++++++++++++++++

                           -------------------------------
                               Symmetry and Constraints
                           -------------------------------

                      Number of symmetry operations   =          16
                      Number of ionic constraints     =           3
                      Maximum deviation from symmetry = 0.109178E-14     ANG
               Point group of crystal =    15: D4h, 4/mmm, 4/m 2/m 2/m
           Set iprint > 1 for details on symmetry rotations/translations

                          Centre of mass is constrained
             Set iprint > 1 for details of linear ionic constraints

                         Number of cell constraints= 4
                         Cell constraints are:  1 1 3 0 0 0

                         External pressure/stress (GPa)
                          0.00000   0.00000   0.00000
                                    0.00000   0.00000
                                              0.00000
  
+---------------- MEMORY AND SCRATCH DISK ESTIMATES PER NODE -----------------+
|                                                     Memory          Disk    |
| Model and support data                              369.6 MB         0.0 MB |
| Electronic energy minimisation requirements          90.8 MB         0.0 MB |
|                                               ----------------------------- |
| Approx. total storage required per node             460.4 MB         0.0 MB |
|                                                                             |
| Requirements will fluctuate during execution and may exceed these estimates |
+-----------------------------------------------------------------------------+
------------------------------------------------------------------------ <-- SCF
SCF loop      Energy           Fermi           Energy gain       Timer   <-- SCF
                               energy          per atom          (sec)   <-- SCF
------------------------------------------------------------------------ <-- SCF
Initial  -3.48137356E+003  0.00000000E+000                        10.95  <-- SCF
      1  -3.94158402E+003  3.68453388E+000   1.15052616E+002      27.15  <-- SCF
      2  -4.00635254E+003  1.12969729E+000   1.61921283E+001      36.89  <-- SCF
      3  -4.01106082E+003  6.33414792E-001   1.17706994E+000      49.96  <-- SCF
      4  -4.01127699E+003  5.44131870E-001   5.40446362E-002      64.89  <-- SCF
      5  -4.01130052E+003  5.12007495E-001   5.88148465E-003      79.25  <-- SCF
      6  -4.01130173E+003  5.02729673E-001   3.03277252E-004      93.05  <-- SCF
      7  -4.01130195E+003  5.01899522E-001   5.37727528E-005     103.94  <-- SCF
      8  -4.01130198E+003  5.01224127E-001   8.68908910E-006     113.35  <-- SCF
      9  -4.01130199E+003  5.01149903E-001   7.35199807E-007     122.27  <-- SCF
------------------------------------------------------------------------ <-- SCF
 
Final energy, E             =  -4011.292922303     eV
Final free energy (E-TS)    =  -4011.301986131     eV
(energies not corrected for finite basis set)
 
NB est. 0K energy (E-0.5TS)      =  -4011.297454217     eV
 

Writing model to Ca.check

 ***************** Symmetrised Forces *****************
 *                                                    *
 *            Cartesian components (eV/A)             *
 * -------------------------------------------------- *
 *                   x            y            z      *
 *                                                    *
 * Ca        1      0.00000      0.00000     -0.00000 *
 * Ca        2      0.00000      0.00000     -0.00000 *
 * Ca        3      0.00000      0.00000     -0.00015 *
 * Ca        4      0.00000      0.00000      0.00015 *
 *                                                    *
 ******************************************************

 Pseudo atomic calculation performed for Ca 3s2 3p6 4s2

 Converged in 19 iterations to a total energy of -1001.2130 eV

Charge spilling parameter for spin component 1 = 3.41%

     Atomic Populations (Mulliken)
     -----------------------------
Species   Ion     s      p      d      f     Total  Charge (e)
==============================================================
  Ca       1     3.54   6.00   0.46   0.00  10.00    -0.00
  Ca       2     3.54   6.00   0.46   0.00  10.00     0.00
  Ca       3     3.54   6.00   0.46   0.00  10.00     0.00
  Ca       4     3.54   6.00   0.46   0.00  10.00     0.00
==============================================================

            Bond              Population      Length (A)
============================================================
============================================================


Writing model to Ca.check

Writing analysis data to Ca.castep_bin
 
 A BibTeX formatted list of references used in this run has been written to 
 Ca.bib
 
Initialisation time =      8.84 s
Calculation time    =    120.99 s
Finalisation time   =      2.57 s
Total time          =    132.39 s
Peak Memory Use     = 552820 kB
 +-------------------------------------------------+
 |                                                 |
 |      CCC   AA    SSS  TTTTT  EEEEE  PPPP        |
 |     C     A  A  S       T    E      P   P       |
 |     C     AAAA   SS     T    EEE    PPPP        |
 |     C     A  A     S    T    E      P           |
 |      CCC  A  A  SSS     T    EEEEE  P           |
 |                                                 |
 +-------------------------------------------------+
 |                                                 |
 | Welcome to Academic Release CASTEP version 6.11 |
 | Ab Initio Total Energy Program                  |
 |                                                 |
 | Authors:                                        |
 | M. Segall, M. Probert, C. Pickard, P. Hasnip,   |
 | S. Clark, K. Refson, J. R. Yates, M. Payne      |
 |                                                 |
 | Contributors:                                   |
 | P. Lindan, P. Haynes, J. White, V. Milman,      |
 | N. Govind, M. Gibson, P. Tulip, V. Cocula,      |
 | B. Montanari, D. Quigley, M. Glover,            |
 | L. Bernasconi, A. Perlov, M. Plummer,           |
 | E. McNellis, J. Meyer, J. Gale, D. Jochym       |
 | J. Aarons, B. Walker, R. Gillen                 |
 |                                                 |
 | Copyright (c) 2000 - 2012                       |
 |                                                 |
 |     Distributed under the terms of an           |
 |     Agreement between the United Kingdom        |
 |     Car-Parrinello (UKCP) Consortium,           |
 |     Daresbury Laboratory and Accelrys, Inc.     |
 |                                                 |
 | Please cite                                     |
 |                                                 |
 |     "First principles methods using CASTEP"     |
 |                                                 |
 |         Zeitschrift fuer Kristallographie       |
 |           220(5-6) pp. 567-570 (2005)           |
 |                                                 |
 | S. J. Clark, M. D. Segall, C. J. Pickard,       |
 | P. J. Hasnip, M. J. Probert, K. Refson,         |
 | M. C. Payne                                     |
 |                                                 |
 |       in all publications arising from          |
 |              your use of CASTEP                 |
 |                                                 |
 +-------------------------------------------------+


 Compiled for linux_x86_64_gfortran on Tue Jul 23 08:36:46 2013
 from source code version 17dc085fd1b9+ Castep61_branch 2013-03-13
 using intermediate optimisation, default FFTs and default LAPACK and BLAS.


 Atomic calculation performed for Ca: 1s2 2s2 2p6 3s2 3p6 4s2

 Converged in 54 iterations to an ae energy of -18512.579 eV

   ============================================================                
   | Pseudopotential Report - Date of generation 30-03-2015   |                
   ------------------------------------------------------------                
   | Element: Ca Ionic charge: 10.00 Level of theory: PBE     |                
   |                                                          |                
   |               Reference Electronic Structure             |                
   |         Orbital         Occupation         Energy        |                
   |            3s              2.000           -1.731        |                
   |            3p              6.000           -1.029        |                
   |            4s              2.000           -0.138        |                
   |                                                          |                
   |                 Pseudopotential Definition               |                
   |        Beta     l      e      Rc     scheme   norm       |                
   |          1      0   -1.731   2.005     qc      0         |                
   |          2      0   -0.138   2.005     qc      0         |                
   |          3      1   -1.029   2.005     qc      0         |                
   |          4      1    0.250   2.005     qc      0         |                
   |          5      2    0.000   2.005     qc      0         |                
   |          6      2    1.000   2.005     qc      0         |                
   |         loc     3    0.000   1.601     pn      0         |                
   |                                                          |                
   | Augmentation charge Rinner = 1.401                       |                
   | Partial core correction Rc = 1.401                       |                
   ------------------------------------------------------------                
   | "3|1.6|2.0|1.4|7|9|10|30U:40U:31:32U=0U=1.0"             |                
   ------------------------------------------------------------                
   |      Author: Chris J. Pickard, Cambridge University      |                
   ============================================================                

 Pseudo atomic calculation performed for Ca 3s2 3p6 4s2

 Converged in 19 iterations to a total energy of -1001.2130 eV

 Calculation not parallelised.

 ************************************ Title ************************************
 

 ***************************** General Parameters ******************************
  
 output verbosity                               : normal  (1)
 write checkpoint data to                       : Ca.check
 type of calculation                            : single point energy
 stress calculation                             : off
 density difference calculation                 : off
 electron localisation func (ELF) calculation   : off
 Hirshfeld analysis                             : off
 unlimited duration calculation
 timing information                             : on
 memory usage estimate                          : on
 write final potential to formatted file        : off
 write final density to formatted file          : off
 write BibTeX reference list                    : on
  
 output         length unit                     : A
 output           mass unit                     : amu
 output           time unit                     : ps
 output         charge unit                     : e
 output         energy unit                     : eV
 output          force unit                     : eV/A
 output       velocity unit                     : A/ps
 output       pressure unit                     : GPa
 output     inv_length unit                     : 1/A
 output      frequency unit                     : cm-1
 output force constant unit                     : eV/A**2
 output         volume unit                     : A**3
 output   IR intensity unit                     : (D/A)**2/amu
 output         dipole unit                     : D
 output         efield unit                     : eV/A/e
 output        entropy unit                     : J/mol/K
  
 wavefunctions paging                           : none
 data distribution                              : optimal for this architecture
 optimization strategy                          : maximize speed(+++)

 *********************** Exchange-Correlation Parameters ***********************
  
 using functional                               : Perdew Wang (1991)
 Divergence correction                          : off
 DFT+D: Semi-empirical dispersion correction    : off

 ************************* Pseudopotential Parameters **************************
  
 pseudopotential representation                 : reciprocal space
 <beta|phi> representation                      : reciprocal space

 **************************** Basis Set Parameters *****************************
  
 plane wave basis set cut-off                   :   700.0000   eV
 finite basis set correction                    : none

 **************************** Electronic Parameters ****************************
  
 number of  electrons                           :  40.00    
 net charge of system                           :  0.000    
 net spin   of system                           :  0.000    
 number of  up  spins                           :  20.00    
 number of down spins                           :  20.00    
 treating system as non-spin-polarized
 number of bands                                :         24

 ********************* Electronic Minimization Parameters **********************
  
 Method: Treating system as metallic with density mixing treatment of electrons,
         and number of  SD  steps               :          1
         and number of  CG  steps               :          4
  
 total energy / atom convergence tol.           : 0.1000E-04   eV
 eigen-energy convergence tolerance             : 0.1000E-05   eV
 max force / atom convergence tol.              : ignored
 convergence tolerance window                   :          3   cycles
 max. number of SCF cycles                      :         30
 number of fixed-spin iterations                :         10
 smearing scheme                                : Gaussian
 smearing width                                 : 0.4000E-01   eV
 Fermi energy convergence tolerance             : 0.1000E-06   eV
 periodic dipole correction                     : NONE

 ************************** Density Mixing Parameters **************************
  
 density-mixing scheme                          : Broyden
 max. length of mixing history                  :          7
 charge density mixing amplitude                : 0.8000    
 cut-off energy for mixing                      :  700.0       eV

 *********************** Population Analysis Parameters ************************
  
 Population analysis with cutoff                :  3.000       A

 *******************************************************************************
  

                           -------------------------------
                                      Unit Cell
                           -------------------------------
        Real Lattice(A)                      Reciprocal Lattice(1/A)
   8.8153560   0.0000000   0.0000000        0.7127546  -0.0000000  -0.0000000
   0.0000000   8.8153560   0.0000000        0.0000000   0.7127546  -0.0000000
   0.0000000   0.0000000   4.5899673        0.0000000   0.0000000   1.3688954

                       Lattice parameters(A)       Cell Angles
                    a =    8.815356          alpha =   90.000000
                    b =    8.815356          beta  =   90.000000
                    c =    4.589967          gamma =   90.000000

                       Current cell volume =  356.688659       A**3

                           -------------------------------
                                     Cell Contents
                           -------------------------------
                         Total number of ions in cell =    4
                      Total number of species in cell =    1
                        Max number of any one species =    4

            xxxxxxxxxxxxxxxxxxxxxxxxxxxxxxxxxxxxxxxxxxxxxxxxxxxxxxxxxxxx
            x  Element    Atom        Fractional coordinates of atoms  x
            x            Number           u          v          w      x
            x----------------------------------------------------------x
            x  Ca           1         0.000000   0.000000   0.000000   x
            x  Ca           2         0.500000   0.500000   0.500000   x
            x  Ca           3         0.500000   0.000000   0.750000   x
            x  Ca           4         0.000000   0.500000   0.250000   x
            xxxxxxxxxxxxxxxxxxxxxxxxxxxxxxxxxxxxxxxxxxxxxxxxxxxxxxxxxxxx


                         No user defined ionic velocities

                           -------------------------------
                                   Details of Species
                           -------------------------------

                               Mass of species in AMU
                                    Ca   40.0780000

                          Electric Quadrupole Moment (Barn)
                                    Ca   -0.0408000 Isotope 43

                          Files used for pseudopotentials:
                                    Ca Pseudopotential generated on-the-fly

                           -------------------------------
                              k-Points For BZ Sampling
                           -------------------------------
                       MP grid size for SCF calculation is  4  4  4
                         Number of kpoints used =           6

             +++++++++++++++++++++++++++++++++++++++++++++++++++++++
             +  Number       Fractional coordinates        Weight  +
             +-----------------------------------------------------+
             +     1  -0.375000  -0.375000  -0.125000   0.1250000  +
             +     2  -0.375000  -0.125000   0.375000   0.2500000  +
             +     3  -0.375000   0.375000   0.375000   0.1250000  +
             +     4  -0.125000  -0.375000  -0.125000   0.2500000  +
             +     5   0.125000  -0.125000  -0.375000   0.1250000  +
             +     6   0.125000  -0.125000  -0.125000   0.1250000  +
             +++++++++++++++++++++++++++++++++++++++++++++++++++++++

                           -------------------------------
                               Symmetry and Constraints
                           -------------------------------

                      Number of symmetry operations   =          16
                      Number of ionic constraints     =           3
                      Maximum deviation from symmetry = 0.107953E-14     ANG
               Point group of crystal =    15: D4h, 4/mmm, 4/m 2/m 2/m
           Set iprint > 1 for details on symmetry rotations/translations

                          Centre of mass is constrained
             Set iprint > 1 for details of linear ionic constraints

                         Number of cell constraints= 4
                         Cell constraints are:  1 1 3 0 0 0

                         External pressure/stress (GPa)
                          0.00000   0.00000   0.00000
                                    0.00000   0.00000
                                              0.00000
  
+---------------- MEMORY AND SCRATCH DISK ESTIMATES PER NODE -----------------+
|                                                     Memory          Disk    |
| Model and support data                              367.4 MB         0.0 MB |
| Electronic energy minimisation requirements          88.3 MB         0.0 MB |
|                                               ----------------------------- |
| Approx. total storage required per node             455.7 MB         0.0 MB |
|                                                                             |
| Requirements will fluctuate during execution and may exceed these estimates |
+-----------------------------------------------------------------------------+
------------------------------------------------------------------------ <-- SCF
SCF loop      Energy           Fermi           Energy gain       Timer   <-- SCF
                               energy          per atom          (sec)   <-- SCF
------------------------------------------------------------------------ <-- SCF
Initial  -3.47758350E+003  0.00000000E+000                        10.77  <-- SCF
      1  -3.93944142E+003  3.76210487E+000   1.15464481E+002      26.36  <-- SCF
      2  -4.00679027E+003  1.13305944E+000   1.68372109E+001      35.62  <-- SCF
      3  -4.01123202E+003  6.96226581E-001   1.11043703E+000      48.41  <-- SCF
      4  -4.01146093E+003  6.37022496E-001   5.72293207E-002      62.81  <-- SCF
      5  -4.01148441E+003  6.08280905E-001   5.86923219E-003      77.12  <-- SCF
      6  -4.01148597E+003  5.97423777E-001   3.88752248E-004      90.28  <-- SCF
      7  -4.01148615E+003  5.96170385E-001   4.64378265E-005     101.24  <-- SCF
      8  -4.01148618E+003  5.95693044E-001   7.56599756E-006     110.55  <-- SCF
      9  -4.01148618E+003  5.95576274E-001   6.01375758E-007     119.40  <-- SCF
------------------------------------------------------------------------ <-- SCF
 
Final energy, E             =  -4011.475627702     eV
Final free energy (E-TS)    =  -4011.486183957     eV
(energies not corrected for finite basis set)
 
NB est. 0K energy (E-0.5TS)      =  -4011.480905830     eV
 

Writing model to Ca.check

 ***************** Symmetrised Forces *****************
 *                                                    *
 *            Cartesian components (eV/A)             *
 * -------------------------------------------------- *
 *                   x            y            z      *
 *                                                    *
 * Ca        1     -0.00000      0.00000      0.00000 *
 * Ca        2      0.00000      0.00000      0.00000 *
 * Ca        3      0.00000     -0.00000      0.00021 *
 * Ca        4      0.00000      0.00000     -0.00021 *
 *                                                    *
 ******************************************************

 Pseudo atomic calculation performed for Ca 3s2 3p6 4s2

 Converged in 19 iterations to a total energy of -1001.2130 eV

Charge spilling parameter for spin component 1 = 3.38%

     Atomic Populations (Mulliken)
     -----------------------------
Species   Ion     s      p      d      f     Total  Charge (e)
==============================================================
  Ca       1     3.52   6.00   0.48   0.00  10.00    -0.00
  Ca       2     3.52   6.00   0.48   0.00  10.00     0.00
  Ca       3     3.52   6.00   0.48   0.00  10.00     0.00
  Ca       4     3.52   6.00   0.48   0.00  10.00     0.00
==============================================================

            Bond              Population      Length (A)
============================================================
============================================================


Writing model to Ca.check

Writing analysis data to Ca.castep_bin
 
 A BibTeX formatted list of references used in this run has been written to 
 Ca.bib
 
Initialisation time =      8.63 s
Calculation time    =    117.67 s
Finalisation time   =      2.96 s
Total time          =    129.26 s
Peak Memory Use     = 550420 kB
 +-------------------------------------------------+
 |                                                 |
 |      CCC   AA    SSS  TTTTT  EEEEE  PPPP        |
 |     C     A  A  S       T    E      P   P       |
 |     C     AAAA   SS     T    EEE    PPPP        |
 |     C     A  A     S    T    E      P           |
 |      CCC  A  A  SSS     T    EEEEE  P           |
 |                                                 |
 +-------------------------------------------------+
 |                                                 |
 | Welcome to Academic Release CASTEP version 6.11 |
 | Ab Initio Total Energy Program                  |
 |                                                 |
 | Authors:                                        |
 | M. Segall, M. Probert, C. Pickard, P. Hasnip,   |
 | S. Clark, K. Refson, J. R. Yates, M. Payne      |
 |                                                 |
 | Contributors:                                   |
 | P. Lindan, P. Haynes, J. White, V. Milman,      |
 | N. Govind, M. Gibson, P. Tulip, V. Cocula,      |
 | B. Montanari, D. Quigley, M. Glover,            |
 | L. Bernasconi, A. Perlov, M. Plummer,           |
 | E. McNellis, J. Meyer, J. Gale, D. Jochym       |
 | J. Aarons, B. Walker, R. Gillen                 |
 |                                                 |
 | Copyright (c) 2000 - 2012                       |
 |                                                 |
 |     Distributed under the terms of an           |
 |     Agreement between the United Kingdom        |
 |     Car-Parrinello (UKCP) Consortium,           |
 |     Daresbury Laboratory and Accelrys, Inc.     |
 |                                                 |
 | Please cite                                     |
 |                                                 |
 |     "First principles methods using CASTEP"     |
 |                                                 |
 |         Zeitschrift fuer Kristallographie       |
 |           220(5-6) pp. 567-570 (2005)           |
 |                                                 |
 | S. J. Clark, M. D. Segall, C. J. Pickard,       |
 | P. J. Hasnip, M. J. Probert, K. Refson,         |
 | M. C. Payne                                     |
 |                                                 |
 |       in all publications arising from          |
 |              your use of CASTEP                 |
 |                                                 |
 +-------------------------------------------------+


 Compiled for linux_x86_64_gfortran on Tue Jul 23 08:36:46 2013
 from source code version 17dc085fd1b9+ Castep61_branch 2013-03-13
 using intermediate optimisation, default FFTs and default LAPACK and BLAS.


 Atomic calculation performed for Ca: 1s2 2s2 2p6 3s2 3p6 4s2

 Converged in 54 iterations to an ae energy of -18512.579 eV

   ============================================================                
   | Pseudopotential Report - Date of generation 30-03-2015   |                
   ------------------------------------------------------------                
   | Element: Ca Ionic charge: 10.00 Level of theory: PBE     |                
   |                                                          |                
   |               Reference Electronic Structure             |                
   |         Orbital         Occupation         Energy        |                
   |            3s              2.000           -1.731        |                
   |            3p              6.000           -1.029        |                
   |            4s              2.000           -0.138        |                
   |                                                          |                
   |                 Pseudopotential Definition               |                
   |        Beta     l      e      Rc     scheme   norm       |                
   |          1      0   -1.731   2.005     qc      0         |                
   |          2      0   -0.138   2.005     qc      0         |                
   |          3      1   -1.029   2.005     qc      0         |                
   |          4      1    0.250   2.005     qc      0         |                
   |          5      2    0.000   2.005     qc      0         |                
   |          6      2    1.000   2.005     qc      0         |                
   |         loc     3    0.000   1.601     pn      0         |                
   |                                                          |                
   | Augmentation charge Rinner = 1.401                       |                
   | Partial core correction Rc = 1.401                       |                
   ------------------------------------------------------------                
   | "3|1.6|2.0|1.4|7|9|10|30U:40U:31:32U=0U=1.0"             |                
   ------------------------------------------------------------                
   |      Author: Chris J. Pickard, Cambridge University      |                
   ============================================================                

 Pseudo atomic calculation performed for Ca 3s2 3p6 4s2

 Converged in 19 iterations to a total energy of -1001.2130 eV

 Calculation not parallelised.

 ************************************ Title ************************************
 

 ***************************** General Parameters ******************************
  
 output verbosity                               : normal  (1)
 write checkpoint data to                       : Ca.check
 type of calculation                            : single point energy
 stress calculation                             : off
 density difference calculation                 : off
 electron localisation func (ELF) calculation   : off
 Hirshfeld analysis                             : off
 unlimited duration calculation
 timing information                             : on
 memory usage estimate                          : on
 write final potential to formatted file        : off
 write final density to formatted file          : off
 write BibTeX reference list                    : on
  
 output         length unit                     : A
 output           mass unit                     : amu
 output           time unit                     : ps
 output         charge unit                     : e
 output         energy unit                     : eV
 output          force unit                     : eV/A
 output       velocity unit                     : A/ps
 output       pressure unit                     : GPa
[...]
 *                                                    *
 * Ca        1      0.00000     -0.00000      0.00000 *
 * Ca        2      0.00000      0.00000      0.00000 *
 * Ca        3      0.00000      0.00000      0.00162 *
 * Ca        4     -0.00000      0.00000     -0.00162 *
 *                                                    *
 ******************************************************

 Pseudo atomic calculation performed for Ca 3s2 3p6 4s2

 Converged in 19 iterations to a total energy of -1001.2130 eV

Charge spilling parameter for spin component 1 = 0.42%

     Atomic Populations (Mulliken)
     -----------------------------
Species   Ion     s      p      d      f     Total  Charge (e)
==============================================================
  Ca       1     2.87   5.98   1.16   0.00  10.00     0.00
  Ca       2     2.87   5.98   1.16   0.00  10.00    -0.00
  Ca       3     2.87   5.98   1.16   0.00  10.00     0.00
  Ca       4     2.87   5.98   1.16   0.00  10.00     0.00
==============================================================

            Bond              Population      Length (A)
============================================================
============================================================


Writing model to Ca.check

Writing analysis data to Ca.castep_bin
 
 A BibTeX formatted list of references used in this run has been written to 
 Ca.bib
 
Initialisation time =      8.35 s
Calculation time    =     24.96 s
Finalisation time   =      1.38 s
Total time          =     34.68 s
Peak Memory Use     = 205268 kB
 +-------------------------------------------------+
 |                                                 |
 |      CCC   AA    SSS  TTTTT  EEEEE  PPPP        |
 |     C     A  A  S       T    E      P   P       |
 |     C     AAAA   SS     T    EEE    PPPP        |
 |     C     A  A     S    T    E      P           |
 |      CCC  A  A  SSS     T    EEEEE  P           |
 |                                                 |
 +-------------------------------------------------+
 |                                                 |
 | Welcome to Academic Release CASTEP version 6.11 |
 | Ab Initio Total Energy Program                  |
 |                                                 |
 | Authors:                                        |
 | M. Segall, M. Probert, C. Pickard, P. Hasnip,   |
 | S. Clark, K. Refson, J. R. Yates, M. Payne      |
 |                                                 |
 | Contributors:                                   |
 | P. Lindan, P. Haynes, J. White, V. Milman,      |
 | N. Govind, M. Gibson, P. Tulip, V. Cocula,      |
 | B. Montanari, D. Quigley, M. Glover,            |
 | L. Bernasconi, A. Perlov, M. Plummer,           |
 | E. McNellis, J. Meyer, J. Gale, D. Jochym       |
 | J. Aarons, B. Walker, R. Gillen                 |
 |                                                 |
 | Copyright (c) 2000 - 2012                       |
 |                                                 |
 |     Distributed under the terms of an           |
 |     Agreement between the United Kingdom        |
 |     Car-Parrinello (UKCP) Consortium,           |
 |     Daresbury Laboratory and Accelrys, Inc.     |
 |                                                 |
 | Please cite                                     |
 |                                                 |
 |     "First principles methods using CASTEP"     |
 |                                                 |
 |         Zeitschrift fuer Kristallographie       |
 |           220(5-6) pp. 567-570 (2005)           |
 |                                                 |
 | S. J. Clark, M. D. Segall, C. J. Pickard,       |
 | P. J. Hasnip, M. J. Probert, K. Refson,         |
 | M. C. Payne                                     |
 |                                                 |
 |       in all publications arising from          |
 |              your use of CASTEP                 |
 |                                                 |
 +-------------------------------------------------+


 Compiled for linux_x86_64_gfortran on Tue Jul 23 08:36:46 2013
 from source code version 17dc085fd1b9+ Castep61_branch 2013-03-13
 using intermediate optimisation, default FFTs and default LAPACK and BLAS.


 Atomic calculation performed for Ca: 1s2 2s2 2p6 3s2 3p6 4s2

 Converged in 54 iterations to an ae energy of -18512.579 eV

   ============================================================                
   | Pseudopotential Report - Date of generation 30-03-2015   |                
   ------------------------------------------------------------                
   | Element: Ca Ionic charge: 10.00 Level of theory: PBE     |                
   |                                                          |                
   |               Reference Electronic Structure             |                
   |         Orbital         Occupation         Energy        |                
   |            3s              2.000           -1.731        |                
   |            3p              6.000           -1.029        |                
   |            4s              2.000           -0.138        |                
   |                                                          |                
   |                 Pseudopotential Definition               |                
   |        Beta     l      e      Rc     scheme   norm       |                
   |          1      0   -1.731   2.005     qc      0         |                
   |          2      0   -0.138   2.005     qc      0         |                
   |          3      1   -1.029   2.005     qc      0         |                
   |          4      1    0.250   2.005     qc      0         |                
   |          5      2    0.000   2.005     qc      0         |                
   |          6      2    1.000   2.005     qc      0         |                
   |         loc     3    0.000   1.601     pn      0         |                
   |                                                          |                
   | Augmentation charge Rinner = 1.401                       |                
   | Partial core correction Rc = 1.401                       |                
   ------------------------------------------------------------                
   | "3|1.6|2.0|1.4|7|9|10|30U:40U:31:32U=0U=1.0"             |                
   ------------------------------------------------------------                
   |      Author: Chris J. Pickard, Cambridge University      |                
   ============================================================                

 Pseudo atomic calculation performed for Ca 3s2 3p6 4s2

 Converged in 19 iterations to a total energy of -1001.2130 eV

 Calculation not parallelised.

 ************************************ Title ************************************
 

 ***************************** General Parameters ******************************
  
 output verbosity                               : normal  (1)
 write checkpoint data to                       : Ca.check
 type of calculation                            : single point energy
 stress calculation                             : off
 density difference calculation                 : off
 electron localisation func (ELF) calculation   : off
 Hirshfeld analysis                             : off
 unlimited duration calculation
 timing information                             : on
 memory usage estimate                          : on
 write final potential to formatted file        : off
 write final density to formatted file          : off
 write BibTeX reference list                    : on
  
 output         length unit                     : A
 output           mass unit                     : amu
 output           time unit                     : ps
 output         charge unit                     : e
 output         energy unit                     : eV
 output          force unit                     : eV/A
 output       velocity unit                     : A/ps
 output       pressure unit                     : GPa
 output     inv_length unit                     : 1/A
 output      frequency unit                     : cm-1
 output force constant unit                     : eV/A**2
 output         volume unit                     : A**3
 output   IR intensity unit                     : (D/A)**2/amu
 output         dipole unit                     : D
 output         efield unit                     : eV/A/e
 output        entropy unit                     : J/mol/K
  
 wavefunctions paging                           : none
 data distribution                              : optimal for this architecture
 optimization strategy                          : maximize speed(+++)

 *********************** Exchange-Correlation Parameters ***********************
  
 using functional                               : Perdew Wang (1991)
 Divergence correction                          : off
 DFT+D: Semi-empirical dispersion correction    : off

 ************************* Pseudopotential Parameters **************************
  
 pseudopotential representation                 : reciprocal space
 <beta|phi> representation                      : reciprocal space

 **************************** Basis Set Parameters *****************************
  
 plane wave basis set cut-off                   :   700.0000   eV
 finite basis set correction                    : none

 **************************** Electronic Parameters ****************************
  
 number of  electrons                           :  40.00    
 net charge of system                           :  0.000    
 net spin   of system                           :  0.000    
 number of  up  spins                           :  20.00    
 number of down spins                           :  20.00    
 treating system as non-spin-polarized
 number of bands                                :         24

 ********************* Electronic Minimization Parameters **********************
  
 Method: Treating system as metallic with density mixing treatment of electrons,
         and number of  SD  steps               :          1
         and number of  CG  steps               :          4
  
 total energy / atom convergence tol.           : 0.1000E-04   eV
 eigen-energy convergence tolerance             : 0.1000E-05   eV
 max force / atom convergence tol.              : ignored
 convergence tolerance window                   :          3   cycles
 max. number of SCF cycles                      :         30
 number of fixed-spin iterations                :         10
 smearing scheme                                : Gaussian
 smearing width                                 : 0.4000E-01   eV
 Fermi energy convergence tolerance             : 0.1000E-06   eV
 periodic dipole correction                     : NONE

 ************************** Density Mixing Parameters **************************
  
 density-mixing scheme                          : Broyden
 max. length of mixing history                  :          7
 charge density mixing amplitude                : 0.8000    
 cut-off energy for mixing                      :  700.0       eV

 *********************** Population Analysis Parameters ************************
  
 Population analysis with cutoff                :  3.000       A

 *******************************************************************************
  

                           -------------------------------
                                      Unit Cell
                           -------------------------------
        Real Lattice(A)                      Reciprocal Lattice(1/A)
   5.7153560   0.0000000   0.0000000        1.0993515  -0.0000000  -0.0000000
   0.0000000   5.7153560   0.0000000        0.0000000   1.0993515  -0.0000000
   0.0000000   0.0000000   2.9758636        0.0000000   0.0000000   2.1113822

                       Lattice parameters(A)       Cell Angles
                    a =    5.715356          alpha =   90.000000
                    b =    5.715356          beta  =   90.000000
                    c =    2.975864          gamma =   90.000000

                       Current cell volume =   97.207460       A**3

                           -------------------------------
                                     Cell Contents
                           -------------------------------
                         Total number of ions in cell =    4
                      Total number of species in cell =    1
                        Max number of any one species =    4

            xxxxxxxxxxxxxxxxxxxxxxxxxxxxxxxxxxxxxxxxxxxxxxxxxxxxxxxxxxxx
            x  Element    Atom        Fractional coordinates of atoms  x
            x            Number           u          v          w      x
            x----------------------------------------------------------x
            x  Ca           1         0.000000   0.000000   0.000000   x
            x  Ca           2         0.500000   0.500000   0.500000   x
            x  Ca           3         0.500000   0.000000   0.750000   x
            x  Ca           4         0.000000   0.500000   0.250000   x
            xxxxxxxxxxxxxxxxxxxxxxxxxxxxxxxxxxxxxxxxxxxxxxxxxxxxxxxxxxxx


                         No user defined ionic velocities

                           -------------------------------
                                   Details of Species
                           -------------------------------

                               Mass of species in AMU
                                    Ca   40.0780000

                          Electric Quadrupole Moment (Barn)
                                    Ca   -0.0408000 Isotope 43

                          Files used for pseudopotentials:
                                    Ca Pseudopotential generated on-the-fly

                           -------------------------------
                              k-Points For BZ Sampling
                           -------------------------------
                       MP grid size for SCF calculation is  4  4  4
                         Number of kpoints used =           6

             +++++++++++++++++++++++++++++++++++++++++++++++++++++++
             +  Number       Fractional coordinates        Weight  +
             +-----------------------------------------------------+
             +     1  -0.375000  -0.375000  -0.125000   0.1250000  +
             +     2  -0.375000   0.125000  -0.375000   0.2500000  +
             +     3  -0.375000   0.375000   0.375000   0.1250000  +
             +     4   0.125000  -0.375000  -0.125000   0.2500000  +
             +     5   0.125000  -0.125000  -0.375000   0.1250000  +
             +     6   0.125000  -0.125000  -0.125000   0.1250000  +
             +++++++++++++++++++++++++++++++++++++++++++++++++++++++

                           -------------------------------
                               Symmetry and Constraints
                           -------------------------------

                      Number of symmetry operations   =          16
                      Number of ionic constraints     =           3
                      Maximum deviation from symmetry = 0.699906E-15     ANG
               Point group of crystal =    15: D4h, 4/mmm, 4/m 2/m 2/m
           Set iprint > 1 for details on symmetry rotations/translations

                          Centre of mass is constrained
             Set iprint > 1 for details of linear ionic constraints

                         Number of cell constraints= 4
                         Cell constraints are:  1 1 3 0 0 0

                         External pressure/stress (GPa)
                          0.00000   0.00000   0.00000
                                    0.00000   0.00000
                                              0.00000
  
+---------------- MEMORY AND SCRATCH DISK ESTIMATES PER NODE -----------------+
|                                                     Memory          Disk    |
| Model and support data                              117.5 MB         0.0 MB |
| Electronic energy minimisation requirements          24.3 MB         0.0 MB |
|                                               ----------------------------- |
| Approx. total storage required per node             141.8 MB         0.0 MB |
|                                                                             |
| Requirements will fluctuate during execution and may exceed these estimates |
+-----------------------------------------------------------------------------+
------------------------------------------------------------------------ <-- SCF
SCF loop      Energy           Fermi           Energy gain       Timer   <-- SCF
                               energy          per atom          (sec)   <-- SCF
------------------------------------------------------------------------ <-- SCF
Initial  -3.50581859E+003  0.00000000E+000                         9.79  <-- SCF
      1  -3.92918605E+003  1.00102169E+001   1.05841867E+002      12.82  <-- SCF
      2  -4.00891409E+003  7.53217445E+000   1.99320087E+001      15.07  <-- SCF
      3  -4.01139887E+003  7.49950031E+000   6.21196320E-001      17.64  <-- SCF
      4  -4.01150355E+003  7.52143899E+000   2.61697309E-002      20.42  <-- SCF
      5  -4.01151424E+003  7.51366359E+000   2.67169711E-003      23.44  <-- SCF
      6  -4.01151462E+003  7.51677189E+000   9.62242791E-005      26.23  <-- SCF
      7  -4.01151463E+003  7.51587711E+000   9.19301044E-007      28.25  <-- SCF
      8  -4.01151463E+003  7.51581741E+000   5.96755115E-007      30.00  <-- SCF
------------------------------------------------------------------------ <-- SCF
 
Final energy, E             =  -4011.514629401     eV
Final free energy (E-TS)    =  -4011.514629401     eV
(energies not corrected for finite basis set)
 
NB est. 0K energy (E-0.5TS)      =  -4011.514629401     eV
 

Writing model to Ca.check

 ***************** Symmetrised Forces *****************
 *                                                    *
 *            Cartesian components (eV/A)             *
 * -------------------------------------------------- *
 *                   x            y            z      *
 *                                                    *
 * Ca        1      0.00000      0.00000      0.00000 *
 * Ca        2     -0.00000      0.00000     -0.00000 *
 * Ca        3      0.00000      0.00000      0.00125 *
 * Ca        4     -0.00000      0.00000     -0.00125 *
 *                                                    *
 ******************************************************

 Pseudo atomic calculation performed for Ca 3s2 3p6 4s2

 Converged in 19 iterations to a total energy of -1001.2130 eV

Charge spilling parameter for spin component 1 = 0.38%

     Atomic Populations (Mulliken)
     -----------------------------
Species   Ion     s      p      d      f     Total  Charge (e)
==============================================================
  Ca       1     2.83   5.97   1.19   0.00  10.00    -0.00
  Ca       2     2.83   5.97   1.19   0.00  10.00     0.00
  Ca       3     2.83   5.97   1.19   0.00  10.00     0.00
  Ca       4     2.83   5.97   1.19   0.00  10.00     0.00
==============================================================

            Bond              Population      Length (A)
============================================================
         Ca 2 -- Ca 4              0.26        2.95293
         Ca 2 -- Ca 3              0.26        2.95293
         Ca 1 -- Ca 4              0.26        2.95293
         Ca 1 -- Ca 3              0.26        2.95293
============================================================


Writing model to Ca.check

Writing analysis data to Ca.castep_bin
 
 A BibTeX formatted list of references used in this run has been written to 
 Ca.bib
 
Initialisation time =      8.24 s
Calculation time    =     24.19 s
Finalisation time   =      1.31 s
Total time          =     33.75 s
Peak Memory Use     = 203336 kB
