 +-------------------------------------------------+
 |                                                 |
 |      CCC   AA    SSS  TTTTT  EEEEE  PPPP        |
 |     C     A  A  S       T    E      P   P       |
 |     C     AAAA   SS     T    EEE    PPPP        |
 |     C     A  A     S    T    E      P           |
 |      CCC  A  A  SSS     T    EEEEE  P           |
 |                                                 |
 +-------------------------------------------------+
 |                                                 |
 | Welcome to Academic Release CASTEP version 6.11 |
 | Ab Initio Total Energy Program                  |
 |                                                 |
 | Authors:                                        |
 | M. Segall, M. Probert, C. Pickard, P. Hasnip,   |
 | S. Clark, K. Refson, J. R. Yates, M. Payne      |
 |                                                 |
 | Contributors:                                   |
 | P. Lindan, P. Haynes, J. White, V. Milman,      |
 | N. Govind, M. Gibson, P. Tulip, V. Cocula,      |
 | B. Montanari, D. Quigley, M. Glover,            |
 | L. Bernasconi, A. Perlov, M. Plummer,           |
 | E. McNellis, J. Meyer, J. Gale, D. Jochym       |
 | J. Aarons, B. Walker, R. Gillen                 |
 |                                                 |
 | Copyright (c) 2000 - 2012                       |
 |                                                 |
 |     Distributed under the terms of an           |
 |     Agreement between the United Kingdom        |
 |     Car-Parrinello (UKCP) Consortium,           |
 |     Daresbury Laboratory and Accelrys, Inc.     |
 |                                                 |
 | Please cite                                     |
 |                                                 |
 |     "First principles methods using CASTEP"     |
 |                                                 |
 |         Zeitschrift fuer Kristallographie       |
 |           220(5-6) pp. 567-570 (2005)           |
 |                                                 |
 | S. J. Clark, M. D. Segall, C. J. Pickard,       |
 | P. J. Hasnip, M. J. Probert, K. Refson,         |
 | M. C. Payne                                     |
 |                                                 |
 |       in all publications arising from          |
 |              your use of CASTEP                 |
 |                                                 |
 +-------------------------------------------------+


 Compiled for linux_x86_64_gfortran on Tue Jul 23 08:36:46 2013
 from source code version 17dc085fd1b9+ Castep61_branch 2013-03-13
 using intermediate optimisation, default FFTs and default LAPACK and BLAS.


 Atomic calculation performed for Ca: 1s2 2s2 2p6 3s2 3p6 4s2

 Converged in 54 iterations to an ae energy of -18512.579 eV

   ============================================================                
   | Pseudopotential Report - Date of generation 26-03-2015   |                
   ------------------------------------------------------------                
   | Element: Ca Ionic charge: 10.00 Level of theory: PBE     |                
   |                                                          |                
   |               Reference Electronic Structure             |                
   |         Orbital         Occupation         Energy        |                
   |            3s              2.000           -1.731        |                
   |            3p              6.000           -1.029        |                
   |            4s              2.000           -0.138        |                
   |                                                          |                
   |                 Pseudopotential Definition               |                
   |        Beta     l      e      Rc     scheme   norm       |                
   |          1      0   -1.731   2.005     qc      0         |                
   |          2      0   -0.138   2.005     qc      0         |                
   |          3      1   -1.029   2.005     qc      0         |                
   |          4      1    0.250   2.005     qc      0         |                
   |          5      2    0.000   2.005     qc      0         |                
   |          6      2    1.000   2.005     qc      0         |                
   |         loc     3    0.000   1.601     pn      0         |                
   |                                                          |                
   | Augmentation charge Rinner = 1.401                       |                
   | Partial core correction Rc = 1.401                       |                
   ------------------------------------------------------------                
   | "3|1.6|2.0|1.4|7|9|10|30U:40U:31:32U=0U=1.0"             |                
   ------------------------------------------------------------                
   |      Author: Chris J. Pickard, Cambridge University      |                
   ============================================================                

 Pseudo atomic calculation performed for Ca 3s2 3p6 4s2

 Converged in 19 iterations to a total energy of -1001.1711 eV

 Calculation not parallelised.

 ************************************ Title ************************************
 

 ***************************** General Parameters ******************************
  
 output verbosity                               : normal  (1)
 write checkpoint data to                       : Ca.check
 type of calculation                            : Thermodynamics calculation
 stress calculation                             : off
 density difference calculation                 : off
 electron localisation func (ELF) calculation   : off
 Hirshfeld analysis                             : off
 unlimited duration calculation
 timing information                             : on
 memory usage estimate                          : on
 write final potential to formatted file        : off
 write final density to formatted file          : off
 write BibTeX reference list                    : on
  
 output         length unit                     : A
 output           mass unit                     : amu
 output           time unit                     : ps
 output         charge unit                     : e
 output         energy unit                     : eV
 output          force unit                     : eV/A
 output       velocity unit                     : A/ps
 output       pressure unit                     : GPa
 output     inv_length unit                     : 1/A
 output      frequency unit                     : cm-1
 output force constant unit                     : eV/A**2
 output         volume unit                     : A**3
 output   IR intensity unit                     : (D/A)**2/amu
 output         dipole unit                     : D
 output         efield unit                     : eV/A/e
 output        entropy unit                     : J/mol/K
  
 wavefunctions paging                           : none
 data distribution                              : optimal for this architecture
 optimization strategy                          : maximize speed(+++)

 *********************** Exchange-Correlation Parameters ***********************
  
 using functional                               : Perdew Wang (1991)
 Divergence correction                          : off
 DFT+D: Semi-empirical dispersion correction    : off

 ************************* Pseudopotential Parameters **************************
  
 pseudopotential representation                 : reciprocal space
 <beta|phi> representation                      : reciprocal space

 **************************** Basis Set Parameters *****************************
  
 plane wave basis set cut-off                   :   400.0000   eV
 finite basis set correction                    : none

 **************************** Electronic Parameters ****************************
  
 number of  electrons                           :  40.00    
 net charge of system                           :  0.000    
 net spin   of system                           :  0.000    
 number of  up  spins                           :  20.00    
 number of down spins                           :  20.00    
 treating system as non-spin-polarized
 number of bands                                :         24

 ********************* Electronic Minimization Parameters **********************
  
 Method: Treating system as metallic with density mixing treatment of electrons,
         and number of  SD  steps               :          1
         and number of  CG  steps               :          4
  
 total energy / atom convergence tol.           : 0.1000E-04   eV
 eigen-energy convergence tolerance             : 0.1000E-05   eV
 max force / atom convergence tol.              : ignored
 convergence tolerance window                   :          3   cycles
 max. number of SCF cycles                      :         30
 number of fixed-spin iterations                :         10
 smearing scheme                                : Gaussian
 smearing width                                 : 0.4000E-01   eV
 Fermi energy convergence tolerance             : 0.1000E-06   eV
 periodic dipole correction                     : NONE

 ************************** Density Mixing Parameters **************************
  
 density-mixing scheme                          : Broyden
 max. length of mixing history                  :          7
 charge density mixing amplitude                : 0.8000    
 cut-off energy for mixing                      :  400.0       eV

 *********************** Population Analysis Parameters ************************
  
 Population analysis with cutoff                :  3.000       A

 ****************************** Phonon Parameters ******************************
  
 phonon calculation method                      : finite displacement
 finite displacement amplitude                  : 0.5292E-02   A
 fine phonon calculation method                 : supercell
 non-periodic force constant method             : Weighted cumulant sum
 LO/TO splitting term                           : not included
 acoustic phonon sum rule                       : correct D(q) in recip-space
 Born effective charges                         : not calculated
 Raman intensities                              : not calculated
 phonon k-points                                : use reduced set
 phonon DOS                                     : not calculated
 no timed backups

 ************************** Thermodynamics Parameters **************************
 Helmholtz free energy                          : calculated
 Initial temperature                            :  0.000       K
 Final temperature                              :  300.0       K
 Spacing between temperature values             :  3.000       K
 Number of temperature values                   :        102
 band convergence tolerance                     : 0.1000E-05   eV

 *******************************************************************************
  

                           -------------------------------
                                      Unit Cell
                           -------------------------------
        Real Lattice(A)                      Reciprocal Lattice(1/A)
   6.8653560   0.0000000   0.0000000        0.9152017  -0.0000000  -0.0000000
   0.0000000   6.8653560   0.0000000        0.0000000   0.9152017  -0.0000000
   0.0000000   0.0000000   3.5746440        0.0000000   0.0000000   1.7577094

                       Lattice parameters(A)       Cell Angles
                    a =    6.865356          alpha =   90.000000
                    b =    6.865356          beta  =   90.000000
                    c =    3.574644          gamma =   90.000000

                       Current cell volume =  168.484100       A**3

                           -------------------------------
                                     Cell Contents
                           -------------------------------
                         Total number of ions in cell =    4
                      Total number of species in cell =    1
                        Max number of any one species =    4

            xxxxxxxxxxxxxxxxxxxxxxxxxxxxxxxxxxxxxxxxxxxxxxxxxxxxxxxxxxxx
            x  Element    Atom        Fractional coordinates of atoms  x
            x            Number           u          v          w      x
            x----------------------------------------------------------x
            x  Ca           1         0.000000   0.000000   0.000000   x
            x  Ca           2         0.500000   0.500000   0.500000   x
            x  Ca           3         0.500000   0.000000   0.750000   x
            x  Ca           4         0.000000   0.500000   0.250000   x
            xxxxxxxxxxxxxxxxxxxxxxxxxxxxxxxxxxxxxxxxxxxxxxxxxxxxxxxxxxxx


                         No user defined ionic velocities

                           -------------------------------
                                   Details of Species
                           -------------------------------

                               Mass of species in AMU
                                    Ca   40.0780000

                          Electric Quadrupole Moment (Barn)
                                    Ca   -0.0408000 Isotope 43

                          Files used for pseudopotentials:
                                    Ca Pseudopotential generated on-the-fly

                           -------------------------------
                              k-Points For BZ Sampling
                           -------------------------------
                       MP grid size for SCF calculation is  2  2  2
                         Number of kpoints used =           1

             +++++++++++++++++++++++++++++++++++++++++++++++++++++++
             +  Number       Fractional coordinates        Weight  +
             +-----------------------------------------------------+
             +     1  -0.250000  -0.250000  -0.250000   1.0000000  +
             +++++++++++++++++++++++++++++++++++++++++++++++++++++++

                           -------------------------------
                               Symmetry and Constraints
                           -------------------------------

                      Number of symmetry operations   =          16
                      Number of ionic constraints     =           3
                      Maximum deviation from symmetry = 0.840736E-15     ANG
               Point group of crystal =    15: D4h, 4/mmm, 4/m 2/m 2/m
           Set iprint > 1 for details on symmetry rotations/translations

                          Centre of mass is constrained
             Set iprint > 1 for details of linear ionic constraints

                         Number of cell constraints= 4
                         Cell constraints are:  1 1 3 0 0 0

                         External pressure/stress (GPa)
                          0.00000   0.00000   0.00000
                                    0.00000   0.00000
                                              0.00000
  
+---------------- MEMORY AND SCRATCH DISK ESTIMATES PER NODE -----------------+
|                                                     Memory          Disk    |
| Model and support data                               89.9 MB         0.0 MB |
| Electronic energy minimisation requirements           6.7 MB         0.0 MB |
|                                               ----------------------------- |
| Approx. total storage required per node              96.6 MB         0.0 MB |
|                                                                             |
| Requirements will fluctuate during execution and may exceed these estimates |
+-----------------------------------------------------------------------------+
------------------------------------------------------------------------ <-- SCF
SCF loop      Energy           Fermi           Energy gain       Timer   <-- SCF
                               energy          per atom          (sec)   <-- SCF
------------------------------------------------------------------------ <-- SCF
Initial  -3.50849436E+003  0.00000000E+000                         9.42  <-- SCF
      1  -3.92990030E+003  7.15349410E+000   1.05351486E+002       9.79  <-- SCF
      2  -4.01085267E+003  4.40554311E+000   2.02380914E+001      10.04  <-- SCF
      3  -4.01456436E+003  3.98302914E+000   9.27923825E-001      10.36  <-- SCF
      4  -4.01465419E+003  3.94271905E+000   2.24567641E-002      10.85  <-- SCF
      5  -4.01466875E+003  3.92261464E+000   3.64154018E-003      11.34  <-- SCF
      6  -4.01466958E+003  3.91893678E+000   2.07477695E-004      11.80  <-- SCF
      7  -4.01466961E+003  3.91762115E+000   7.05329279E-006      12.19  <-- SCF
      8  -4.01466961E+003  3.91735322E+000   6.07915385E-007      12.54  <-- SCF
------------------------------------------------------------------------ <-- SCF
 
Final energy, E             =  -4014.669614764     eV
Final free energy (E-TS)    =  -4014.669614764     eV
(energies not corrected for finite basis set)
 
NB est. 0K energy (E-0.5TS)      =  -4014.669614764     eV
 

Writing model to Ca.check
                                                                         
              The requested supercell has been generated                 
                                                                         

                           -------------------------------
                                      Unit Cell
                           -------------------------------
        Real Lattice(A)                      Reciprocal Lattice(1/A)
  13.7307120   0.0000000   0.0000000        0.4576008  -0.0000000  -0.0000000
   0.0000000  13.7307120   0.0000000        0.0000000   0.4576008  -0.0000000
   0.0000000   0.0000000   7.1492880        0.0000000   0.0000000   0.8788547

                       Lattice parameters(A)       Cell Angles
                    a =   13.730712          alpha =   90.000000
                    b =   13.730712          beta  =   90.000000
                    c =    7.149288          gamma =   90.000000

                       Current cell volume = 1347.872797       A**3

                           -------------------------------
                                     Cell Contents
                           -------------------------------
                         Total number of ions in cell =   32
                      Total number of species in cell =    1
                        Max number of any one species =   32

            xxxxxxxxxxxxxxxxxxxxxxxxxxxxxxxxxxxxxxxxxxxxxxxxxxxxxxxxxxxx
            x  Element    Atom        Fractional coordinates of atoms  x
            x            Number           u          v          w      x
            x----------------------------------------------------------x
            x  Ca           1         0.000000   0.000000   0.000000   x
            x  Ca           2         0.250000   0.250000   0.250000   x
            x  Ca           3         0.250000   0.000000   0.375000   x
            x  Ca           4         0.000000   0.250000   0.125000   x
            x  Ca           5         0.500000   0.000000   0.000000   x
            x  Ca           6         0.750000   0.250000   0.250000   x
            x  Ca           7         0.750000   0.000000   0.375000   x
            x  Ca           8         0.500000   0.250000   0.125000   x
            x  Ca           9         0.000000   0.500000   0.000000   x
            x  Ca          10         0.250000   0.750000   0.250000   x
            x  Ca          11         0.250000   0.500000   0.375000   x
            x  Ca          12         0.000000   0.750000   0.125000   x
            x  Ca          13         0.500000   0.500000   0.000000   x
            x  Ca          14         0.750000   0.750000   0.250000   x
            x  Ca          15         0.750000   0.500000   0.375000   x
            x  Ca          16         0.500000   0.750000   0.125000   x
            x  Ca          17         0.000000   0.000000   0.500000   x
            x  Ca          18         0.250000   0.250000   0.750000   x
            x  Ca          19         0.250000   0.000000   0.875000   x
            x  Ca          20         0.000000   0.250000   0.625000   x
            x  Ca          21         0.500000   0.000000   0.500000   x
            x  Ca          22         0.750000   0.250000   0.750000   x
            x  Ca          23         0.750000   0.000000   0.875000   x
            x  Ca          24         0.500000   0.250000   0.625000   x
            x  Ca          25         0.000000   0.500000   0.500000   x
            x  Ca          26         0.250000   0.750000   0.750000   x
            x  Ca          27         0.250000   0.500000   0.875000   x
            x  Ca          28         0.000000   0.750000   0.625000   x
            x  Ca          29         0.500000   0.500000   0.500000   x
            x  Ca          30         0.750000   0.750000   0.750000   x
            x  Ca          31         0.750000   0.500000   0.875000   x
            x  Ca          32         0.500000   0.750000   0.625000   x
            xxxxxxxxxxxxxxxxxxxxxxxxxxxxxxxxxxxxxxxxxxxxxxxxxxxxxxxxxxxx


                         No user defined ionic velocities

                           -------------------------------
                                   Details of Species
                           -------------------------------

                               Mass of species in AMU
                                    Ca   40.0780000

                          Electric Quadrupole Moment (Barn)
                                    Ca   -0.0408000 Isotope 43

                          Files used for pseudopotentials:
                                    Ca Pseudopotential generated on-the-fly

                           -------------------------------
                              k-Points For BZ Sampling
                           -------------------------------
                       MP grid size for SCF calculation is  1  1  1
                         Number of kpoints used =           1

             +++++++++++++++++++++++++++++++++++++++++++++++++++++++
             +  Number       Fractional coordinates        Weight  +
             +-----------------------------------------------------+
             +     1  -0.500000  -0.500000  -0.500000   1.0000000  +
             +++++++++++++++++++++++++++++++++++++++++++++++++++++++

                           -------------------------------
                               Symmetry and Constraints
                           -------------------------------

                      Number of symmetry operations   =         128
                      Number of ionic constraints     =           3
                      Maximum deviation from symmetry = 0.840736E-15     ANG
               Point group of crystal =    15: D4h, 4/mmm, 4/m 2/m 2/m
           Set iprint > 1 for details on symmetry rotations/translations

                          Centre of mass is constrained
             Set iprint > 1 for details of linear ionic constraints

                         Number of cell constraints= 4
                         Cell constraints are:  1 1 3 0 0 0

                         External pressure/stress (GPa)
                          0.00000   0.00000   0.00000
                                    0.00000   0.00000
                                              0.00000
  +---------------- MEMORY AND SCRATCH DISK ESTIMATES PER NODE -----------------+
  |                                                     Memory          Disk    |
  | Model and support data                               88.2 MB         0.0 MB |
  | Finite displacement phonon requirements             323.9 MB         0.0 MB |
  |                                               ----------------------------- |
  | Approx. total storage required per node             412.1 MB         0.0 MB |
  |                                                                             |
  | Requirements will fluctuate during execution and may exceed these estimates |
  +-----------------------------------------------------------------------------+
------------------------------------------------------------------------ <-- SCF
SCF loop      Energy           Fermi           Energy gain       Timer   <-- SCF
                               energy          per atom          (sec)   <-- SCF
------------------------------------------------------------------------ <-- SCF
Initial  -2.80487070E+004  0.00000000E+000                        23.77  <-- SCF
      1  -3.13606426E+004  6.44914215E+000   1.03497987E+002     147.60  <-- SCF
      2  -3.20833324E+004  4.17406939E+000   2.25840570E+001     234.07  <-- SCF
      3  -3.21151417E+004  3.88204661E+000   9.94041936E-001     337.84  <-- SCF
      4  -3.21171861E+004  3.95587958E+000   6.38874772E-002     447.44  <-- SCF
      5  -3.21173400E+004  3.93189953E+000   4.80825390E-003     552.27  <-- SCF
      6  -3.21173599E+004  3.92654075E+000   6.20736543E-004     656.45  <-- SCF
      7  -3.21173606E+004  3.92506796E+000   2.44538138E-005     738.74  <-- SCF
      8  -3.21173607E+004  3.92493856E+000   1.45606959E-006     809.32  <-- SCF
      9  -3.21173607E+004  3.92484025E+000   3.04168152E-007     869.45  <-- SCF
------------------------------------------------------------------------ <-- SCF
 Perturbation    1 (of    6): Ca    1 X at q=( 0.000, 0.000, 0.000):    874.78s
  +---------------- MEMORY AND SCRATCH DISK ESTIMATES PER NODE -----------------+
  |                                                     Memory          Disk    |
  | Model and support data                              736.8 MB         0.0 MB |
  | Finite displacement phonon requirements             323.9 MB         0.0 MB |
  |                                               ----------------------------- |
  | Approx. total storage required per node            1060.7 MB         0.0 MB |
  |                                                                             |
  | Requirements will fluctuate during execution and may exceed these estimates |
  +-----------------------------------------------------------------------------+
 Perturbation    2 (of    6): Ca    1 Y at q=( 0.000, 0.000, 0.000):   1476.93s
 Perturbation    3 (of    6): Ca    1 Z at q=( 0.000, 0.000, 0.000):   2075.16s
 Perturbation    4 (of    6): Ca    2 X at q=( 0.000, 0.000, 0.000):   2669.64s
 Perturbation    5 (of    6): Ca    2 Y at q=( 0.000, 0.000, 0.000):   3270.91s
 Perturbation    6 (of    6): Ca    2 Z at q=( 0.000, 0.000, 0.000):   3877.35s
 
 ==============================================================================
 +                           Vibrational Frequencies                          +
 +                           -----------------------                          +
 +                                                                            +
 + Performing frequency calculation at  32 wavevectors (q-pts)                +
 + ========================================================================== +
 +                                                                            +
 + -------------------------------------------------------------------------- +
 +  q-pt=    1 (  0.000000  0.000000  0.000000)     0.0312500000              +
 + -------------------------------------------------------------------------- +
 +  Acoustic sum rule correction <  40.902845 cm-1 applied                    +
 +     N      Frequency irrep.              ir active            raman active + 
 +                (cm-1)                                                      + 
 +                                                                            +
 +     1    -118.671944   a                     Y                       Y     + 
 +     2    -118.671811   a                     Y                       Y     + 
 +     3      -0.440154   b                     N                       N     + 
 +     4      -0.259791   c                     N                       N     + 
 +     5      15.267920   d                     N                       N     + 
 +     6      73.021277   e                     N                       Y     + 
 +     7      75.879089   f                     Y                       N     + 
 +     8      84.826377   g                     N                       Y     + 
 +     9     132.356565   h                     N                       Y     + 
 +    10     132.361212   h                     N                       Y     + 
 +    11     161.005096   i                     Y                       Y     + 
 +    12     161.008426   i                     Y                       Y     + 
 + .......................................................................... +
 +        Character table from group theory analysis of eigenvectors          +
 +                           Point Group =  15, D4h                           +
 + .......................................................................... +
 +  Rep  Mul |    E  2'   2  2"   4   I m_v m_h m_v  -4                       +
 +           | ----------------------------------------                       +
 + a E     1 |    2   2  -2   0   0   0   0   0   0   0                       +
 + b ?u    1 |    1  -1  -1   0   0  -1   1   1   0   0                       +
 + c ?u    1 |    1   1  -1   0   0  -1  -1   1   0   0                       +
 + d A2u   1 |    1  -1   1  -1   1  -1   1  -1   1  -1                       +
 + e ?g    1 |    1   1   1   0   0   1   1   1   0   0                       +
 + f ?u    1 |    1  -1   1   0   0  -1   1  -1   0   0                       +
 + g B2g   1 |    1   1   1  -1  -1   1   1   1  -1  -1                       +
 + h Eg    1 |    2   0  -2   0   0   2   0  -2   0   0                       +
 + i E     1 |    2  -2  -2   0   0   0   0   0   0   0                       +
 + -------------------------------------------------------------------------- +
 +  q-pt=    2 ( -0.045455  0.045455  0.045455)     0.0312500000              +
 + -------------------------------------------------------------------------- +
 +  Acoustic sum rule correction <  28.063573 cm-1 applied                    +
 +     N      Frequency irrep.                                                + 
 +                (cm-1)                                                      + 
 +                                                                            +
 +     1    -118.724496   a                                                   + 
 +     2    -118.636050   a                                                   + 
 +     3     -22.292075   b                                                   + 
 +     4     -20.451019   c                                                   + 
 +     5      32.775023   b                                                   + 
 +     6      77.395474   a                                                   + 
 +     7      81.084910   a                                                   + 
 +     8      89.217284   c                                                   + 
 +     9     130.621234   c                                                   + 
 +    10     131.259108   b                                                   + 
 +    11     159.022694   d                                                   + 
 +    12     159.064185   d                                                   + 
 + .......................................................................... +
 +        Character table from group theory analysis of eigenvectors          +
 +                           Point Group =  15, D4h                           +
 + .......................................................................... +
 +  Rep  Mul |    E   m                                                       +
 +           | --------                                                       +
 + a       4 |    1   0                                                       +
 + b       3 |    1   1                                                       +
 + c       3 |    1  -1                                                       +
 + d       1 |    2   0                                                       +
 + -------------------------------------------------------------------------- +
 +  q-pt=    3 ( -0.090909  0.090909  0.090909)     0.0312500000              +
 + -------------------------------------------------------------------------- +
 +  Acoustic sum rule correction <  18.391309 cm-1 applied                    +
 +     N      Frequency irrep.                                                + 
 +                (cm-1)                                                      + 
 +                                                                            +
 +     1    -118.866814   a                                                   + 
 +     2    -118.252220   a                                                   + 
 +     3     -43.200124   b                                                   + 
 +     4     -38.956028   c                                                   + 
 +     5      58.570894   b                                                   + 
 +     6      89.132343   a                                                   + 
 +     7      93.547759   a                                                   + 
 +     8     100.100062   c                                                   + 
 +     9     125.939306   c                                                   + 
 +    10     128.221941   b                                                   + 
 +    11     153.269258   a                                                   + 
 +    12     153.651194   a                                                   + 
 + .......................................................................... +
 +        Character table from group theory analysis of eigenvectors          +
 +                           Point Group =  15, D4h                           +
 + .......................................................................... +
 +  Rep  Mul |    E   m                                                       +
 +           | --------                                                       +
 + a       6 |    1   0                                                       +
 + b       3 |    1   1                                                       +
 + c       3 |    1  -1                                                       +
 + -------------------------------------------------------------------------- +
 +  q-pt=    4 ( -0.136364  0.136364  0.136364)     0.0312500000              +
 + -------------------------------------------------------------------------- +
 +  Acoustic sum rule correction <  12.891311 cm-1 applied                    +
 +     N      Frequency irrep.                                                + 
 +                (cm-1)                                                      + 
 +                                                                            +
 +     1    -118.720900   a                                                   + 
 +     2    -117.035683   a                                                   + 
 +     3     -61.420316   b                                                   + 
 +     4     -54.699514   c                                                   + 
 +     5      82.398837   b                                                   + 
 +     6     103.622265   a                                                   + 
 +     7     108.453856   a                                                   + 
 +     8     110.586068   c                                                   + 
 +     9     122.597315   c                                                   + 
 +    10     124.232736   b                                                   + 
 +    11     144.471000   a                                                   + 
 +    12     146.229989   a                                                   + 
 + .......................................................................... +
 +        Character table from group theory analysis of eigenvectors          +
 +                           Point Group =  15, D4h                           +
 + .......................................................................... +
 +  Rep  Mul |    E   m                                                       +
 +           | --------                                                       +
 + a       6 |    1   0                                                       +
 + b       3 |    1   1                                                       +
 + c       3 |    1  -1                                                       +
 + -------------------------------------------------------------------------- +
 +  q-pt=    5 ( -0.181818  0.181818  0.181818)     0.0312500000              +
 + -------------------------------------------------------------------------- +
 +  Acoustic sum rule correction <   5.823744 cm-1 applied                    +
 +     N      Frequency irrep.                                                + 
 +                (cm-1)                                                      + 
 +                                                                            +
 +     1    -117.577126   a                                                   + 
 +     2    -114.476264   a                                                   + 
 +     3     -75.928819   b                                                   + 
 +     4     -67.072601   c                                                   + 
 +     5      99.786112   b                                                   + 
 +     6     104.132146   c                                                   + 
 +     7     115.411190   a                                                   + 
 +     8     120.834361   a                                                   + 
 +     9     123.999728   b                                                   + 
 +    10     132.051819   c                                                   + 
 +    11     135.256206   a                                                   + 
 +    12     142.135119   a                                                   + 
 + .......................................................................... +
 +        Character table from group theory analysis of eigenvectors          +
 +                           Point Group =  15, D4h                           +
 + .......................................................................... +
 +  Rep  Mul |    E   m                                                       +
 +           | --------                                                       +
 + a       6 |    1   0                                                       +
 + b       3 |    1   1                                                       +
 + c       3 |    1  -1                                                       +
 + -------------------------------------------------------------------------- +
 +  q-pt=    6 ( -0.227273  0.227273  0.227273)     0.0312500000              +
 + -------------------------------------------------------------------------- +
 +  Acoustic sum rule correction <   5.882914 cm-1 applied                    +
 +     N      Frequency irrep.                                                + 
 +                (cm-1)                                                      + 
 +                                                                            +
 +     1    -114.686679   a                                                   + 
 +     2    -110.150493   a                                                   + 
 +     3     -86.001005   b                                                   + 
 +     4     -75.503558   c                                                   + 
 +     5      94.221542   c                                                   + 
 +     6     102.253041   b                                                   + 
 +     7     111.787238   a                                                   + 
 +     8     117.487320   a                                                   + 
 +     9     131.723256   b                                                   + 
 +    10     140.935416   a                                                   + 
 +    11     144.367766   c                                                   + 
 +    12     150.301433   a                                                   + 
 + .......................................................................... +
 +        Character table from group theory analysis of eigenvectors          +
 +                           Point Group =  15, D4h                           +
 + .......................................................................... +
 +  Rep  Mul |    E   m                                                       +
 +           | --------                                                       +
 + a       6 |    1   0                                                       +
 + b       3 |    1   1                                                       +
 + c       3 |    1  -1                                                       +
 + -------------------------------------------------------------------------- +
 +  q-pt=    7 ( -0.272727  0.272727  0.272727)     0.0312500000              +
 + -------------------------------------------------------------------------- +
 +  Acoustic sum rule correction <   5.674771 cm-1 applied                    +
 +     N      Frequency irrep.                                                + 
 +                (cm-1)                                                      + 
 +                                                                            +
 +     1    -109.464927   a                                                   + 
 +     2    -103.817644   a                                                   + 
 +     3     -91.210549   b                                                   + 
 +     4     -79.600242   c                                                   + 
 +     5      83.455075   c                                                   + 
 +     6      96.389565   b                                                   + 
 +     7     100.804481   a                                                   + 
 +     8     104.473826   a                                                   + 
 +     9     145.069364   b                                                   + 
 +    10     152.915827   a                                                   + 
 +    11     156.162107   a                                                   + 
 +    12     161.503634   a                                                   + 
 + .......................................................................... +
 +        Character table from group theory analysis of eigenvectors          +
 +                           Point Group =  15, D4h                           +
 + .......................................................................... +
 +  Rep  Mul |    E   m                                                       +
 +           | --------                                                       +
 + a       7 |    1   0                                                       +
 + b       3 |    1   1                                                       +
 + c       2 |    1  -1                                                       +
 + -------------------------------------------------------------------------- +
 +  q-pt=    8 ( -0.318182  0.318182  0.318182)     0.0312500000              +
 + -------------------------------------------------------------------------- +
 +  Acoustic sum rule correction <   5.076901 cm-1 applied                    +
 +     N      Frequency irrep.                                                + 
 +                (cm-1)                                                      + 
 +                                                                            +
 +     1    -101.532135   a                                                   + 
 +     2     -95.436116   a                                                   + 
 +     3     -91.368810   b                                                   + 
 +     4     -79.207489   c                                                   + 
 +     5      72.325649   c                                                   + 
 +     6      87.974992   b                                                   + 
 +     7      88.200842   a                                                   + 
 +     8      90.531925   a                                                   + 
 +     9     156.819824   b                                                   + 
 +    10     163.338064   a                                                   + 
 +    11     166.230653   a                                                   + 
 +    12     170.924596   a                                                   + 
 + .......................................................................... +
 +        Character table from group theory analysis of eigenvectors          +
 +                           Point Group =  15, D4h                           +
 + .......................................................................... +
 +  Rep  Mul |    E   m                                                       +
 +           | --------                                                       +
 + a       7 |    1   0                                                       +
 + b       3 |    1   1                                                       +
 + c       2 |    1  -1                                                       +
 + -------------------------------------------------------------------------- +
 +  q-pt=    9 ( -0.363636  0.363636  0.363636)     0.0312500000              +
 + -------------------------------------------------------------------------- +
 +  Acoustic sum rule correction <   4.729219 cm-1 applied                    +
 +     N      Frequency irrep.                                                + 
 +                (cm-1)                                                      + 
 +                                                                            +
 +     1     -90.618432   a                                                   + 
 +     2     -86.598559   b                                                   + 
 +     3     -84.897275   a                                                   + 
 +     4     -74.348046   c                                                   + 
 +     5      60.168711   c                                                   + 
 +     6      74.295729   a                                                   + 
 +     7      75.614848   a                                                   + 
 +     8      77.595891   b                                                   + 
 +     9     166.200185   b                                                   + 
 +    10     171.654065   a                                                   + 
 +    11     173.997500   a                                                   + 
 +    12     178.036060   c                                                   + 
 + .......................................................................... +
 +        Character table from group theory analysis of eigenvectors          +
 +                           Point Group =  15, D4h                           +
 + .......................................................................... +
 +  Rep  Mul |    E   m                                                       +
 +           | --------                                                       +
 + a       6 |    1   0                                                       +
 + b       3 |    1   1                                                       +
 + c       3 |    1  -1                                                       +
 + -------------------------------------------------------------------------- +
 +  q-pt=   10 ( -0.409091  0.409091  0.409091)     0.0312500000              +
 + -------------------------------------------------------------------------- +
 +  Acoustic sum rule correction <   4.690655 cm-1 applied                    +
 +     N      Frequency irrep.                                                + 
 +                (cm-1)                                                      + 
 +                                                                            +
 +     1     -76.840482   a                                                   + 
 +     2     -76.048122   b                                                   + 
 +     3     -72.437601   b                                                   + 
 +     4     -64.999207   c                                                   + 
 +     5      45.073737   c                                                   + 
 +     6      57.612850   b                                                   + 
 +     7      59.077361   b                                                   + 
 +     8      63.415308   a                                                   + 
 +     9     173.222857   a                                                   + 
 +    10     177.444413   b                                                   + 
 +    11     179.539277   b                                                   + 
 +    12     182.943599   c                                                   + 
 + .......................................................................... +
 +        Character table from group theory analysis of eigenvectors          +
 +                           Point Group =  15, D4h                           +
 + .......................................................................... +
 +  Rep  Mul |    E   m                                                       +
 +           | --------                                                       +
 + a       3 |    1   1                                                       +
 + b       6 |    1   0                                                       +
 + c       3 |    1  -1                                                       +
 + -------------------------------------------------------------------------- +
 +  q-pt=   11 ( -0.454545  0.454545  0.454545)     0.0312500000              +
 + -------------------------------------------------------------------------- +
 +  Acoustic sum rule correction <   4.925809 cm-1 applied                    +
 +     N      Frequency irrep.                                                + 
 +                (cm-1)                                                      + 
 +                                                                            +
 +     1     -61.262842   a                                                   + 
 +     2     -57.386937   b                                                   + 
 +     3     -57.228905   b                                                   + 
 +     4     -50.476577   c                                                   + 
 +     5      19.602863   c                                                   + 
 +     6      32.497224   b                                                   + 
 +     7      37.296325   b                                                   + 
 +     8      42.310448   a                                                   + 
 +     9     177.921294   a                                                   + 
 +    10     180.262080   b                                                   + 
 +    11     183.152674   b                                                   + 
 +    12     185.790192   c                                                   + 
 + .......................................................................... +
 +        Character table from group theory analysis of eigenvectors          +
 +                           Point Group =  15, D4h                           +
 + .......................................................................... +
 +  Rep  Mul |    E   m                                                       +
 +           | --------                                                       +
 + a       3 |    1   1                                                       +
 + b       6 |    1   0                                                       +
 + c       3 |    1  -1                                                       +
 + -------------------------------------------------------------------------- +
 +  q-pt=   12 ( -0.500000  0.500000  0.500000)     0.0312500000              +
 + -------------------------------------------------------------------------- +
 +  Acoustic sum rule correction <   5.387114 cm-1 applied                    +
 +     N      Frequency irrep.                                                + 
 +                (cm-1)                                                      + 
 +                                                                            +
 +     1     -38.734587   a                                                   + 
 +     2     -38.734587   a                                                   + 
 +     3     -38.368374   b                                                   + 
 +     4     -38.368374   b                                                   + 
 +     5     -24.143848   c                                                   + 
 +     6     -24.143848   c                                                   + 
 +     7     -22.718286   d                                                   + 
 +     8     -22.718286   d                                                   + 
 +     9     180.697603   c                                                   + 
 +    10     180.697603   c                                                   + 
 +    11     185.212212   d                                                   + 
 +    12     185.212212   d                                                   + 
 + .......................................................................... +
 +        Character table from group theory analysis of eigenvectors          +
 +                           Point Group =  15, D4h                           +
 + .......................................................................... +
 +  Rep  Mul |    E   2   2   2   4   I   m   m   m  -4                       +
 +           | ----------------------------------------                       +
 + a       1 |    2   0   0   1   0   0   0   0   0   1                       +
 + b       1 |    2   0   0  -1   0   0   0   0   0   1                       +
 + c       2 |    2   0   0  -1   0   0   0   0   0  -1                       +
 + d       2 |    2   0   0   1   0   0   0   0   0  -1                       +
 + -------------------------------------------------------------------------- +
 +  q-pt=   13 ( -0.416667  0.472222  0.472222)     0.0312500000              +
 + -------------------------------------------------------------------------- +
 +  Acoustic sum rule correction <   4.061741 cm-1 applied                    +
 +     N      Frequency irrep.                                                + 
 +                (cm-1)                                                      + 
 +                                                                            +
 +     1     -73.867669   a                                                   + 
 +     2     -67.874945   a                                                   + 
 +     3     -50.602404   a                                                   + 
 +     4     -48.062709   a                                                   + 
 +     5      12.424580   a                                                   + 
 +     6      17.525992   a                                                   + 
 +     7      50.104833   a                                                   + 
 +     8      57.579140   a                                                   + 
 +     9     171.790391   a                                                   + 
 +    10     176.242317   a                                                   + 
 +    11     189.692055   a                                                   + 
 +    12     193.325314   a                                                   + 
 + .......................................................................... +
 +        Character table from group theory analysis of eigenvectors          +
 +                           Point Group =  15, D4h                           +
 + .......................................................................... +
 +  Rep  Mul |    E                                                           +
 +           | ----                                                           +
 + a      12 |    1                                                           +
 + -------------------------------------------------------------------------- +
 +  q-pt=   14 ( -0.333333  0.444444  0.444444)     0.0312500000              +
 + -------------------------------------------------------------------------- +
 +  Acoustic sum rule correction <   3.157025 cm-1 applied                    +
 +     N      Frequency irrep.                                                + 
 +                (cm-1)                                                      + 
 +                                                                            +
 +     1     -96.005685   a                                                   + 
 +     2     -91.106229   a                                                   + 
 +     3     -65.182219   a                                                   + 
 +     4     -60.047478   a                                                   + 
 +     5      34.926195   a                                                   + 
 +     6      40.862612   a                                                   + 
 +     7      77.161370   a                                                   + 
 +     8      82.006600   a                                                   + 
 +     9     171.239806   a                                                   + 
 +    10     176.072675   a                                                   + 
 +    11     188.493179   a                                                   + 
 +    12     194.693738   a                                                   + 
 + .......................................................................... +
 +        Character table from group theory analysis of eigenvectors          +
 +                           Point Group =  15, D4h                           +
 + .......................................................................... +
 +  Rep  Mul |    E                                                           +
 +           | ----                                                           +
 + a      12 |    1                                                           +
 + -------------------------------------------------------------------------- +
 +  q-pt=   15 ( -0.250000  0.416667  0.416667)     0.0312500000              +
 + -------------------------------------------------------------------------- +
 +  Acoustic sum rule correction <   2.665223 cm-1 applied                    +
 +     N      Frequency irrep.                                                + 
 +                (cm-1)                                                      + 
 +                                                                            +
 +     1    -111.787066   a                                                   + 
 +     2    -106.757736   a                                                   + 
 +     3     -77.435285   a                                                   + 
 +     4     -68.538776   a                                                   + 
 +     5      46.860676   a                                                   + 
 +     6      55.996875   a                                                   + 
 +     7      94.113659   a                                                   + 
 +     8      98.169185   a                                                   + 
 +     9     169.935462   a                                                   + 
 +    10     175.337265   a                                                   + 
 +    11     186.583807   a                                                   + 
 +    12     195.904340   a                                                   + 
 + .......................................................................... +
 +        Character table from group theory analysis of eigenvectors          +
 +                           Point Group =  15, D4h                           +
 + .......................................................................... +
 +  Rep  Mul |    E                                                           +
 +           | ----                                                           +
 + a      12 |    1                                                           +
 + -------------------------------------------------------------------------- +
 +  q-pt=   16 ( -0.166667  0.388889  0.388889)     0.0312500000              +
 + -------------------------------------------------------------------------- +
 +  Acoustic sum rule correction <   3.048906 cm-1 applied                    +
 +     N      Frequency irrep.                                                + 
 +                (cm-1)                                                      + 
 +                                                                            +
 +     1    -122.747818   a                                                   + 
 +     2    -115.922264   a                                                   + 
 +     3     -87.496483   a                                                   + 
 +     4     -73.720876   a                                                   + 
 +     5      56.605614   a                                                   + 
 +     6      69.191485   a                                                   + 
 +     7     105.021792   a                                                   + 
 +     8     109.693418   a                                                   + 
 +     9     167.563342   a                                                   + 
 +    10     173.299970   a                                                   + 
 +    11     183.822047   a                                                   + 
 +    12     195.952544   a                                                   + 
 + .......................................................................... +
 +        Character table from group theory analysis of eigenvectors          +
 +                           Point Group =  15, D4h                           +
 + .......................................................................... +
 +  Rep  Mul |    E                                                           +
 +           | ----                                                           +
 + a      12 |    1                                                           +
 + -------------------------------------------------------------------------- +
 +  q-pt=   17 ( -0.083333  0.361111  0.361111)     0.0312500000              +
 + -------------------------------------------------------------------------- +
 +  Acoustic sum rule correction <   3.219247 cm-1 applied                    +
 +     N      Frequency irrep.                                                + 
 +                (cm-1)                                                      + 
 +                                                                            +
 +     1    -129.245137   a                                                   + 
 +     2    -119.119822   a                                                   + 
 +     3     -95.254312   a                                                   + 
 +     4     -76.020406   a                                                   + 
 +     5      65.823318   a                                                   + 
 +     6      81.305478   a                                                   + 
 +     7     111.207254   a                                                   + 
 +     8     117.795515   a                                                   + 
 +     9     163.842007   a                                                   + 
 +    10     169.307139   a                                                   + 
 +    11     179.982575   a                                                   + 
 +    12     193.948950   a                                                   + 
 + .......................................................................... +
 +        Character table from group theory analysis of eigenvectors          +
 +                           Point Group =  15, D4h                           +
 + .......................................................................... +
 +  Rep  Mul |    E                                                           +
 +           | ----                                                           +
 + a      12 |    1                                                           +
 + -------------------------------------------------------------------------- +
 +  q-pt=   18 (  0.000000  0.333333  0.333333)     0.0312500000              +
 + -------------------------------------------------------------------------- +
 +  Acoustic sum rule correction <   3.337467 cm-1 applied                    +
 +     N      Frequency irrep.                                                + 
 +                (cm-1)                                                      + 
 +                                                                            +
 +     1    -131.246776   a                                                   + 
 +     2    -116.924067   a                                                   + 
 +     3    -100.883232   b                                                   + 
 +     4     -76.476347   b                                                   + 
 +     5      74.732219   b                                                   + 
 +     6      91.967255   b                                                   + 
 +     7     113.414598   a                                                   + 
 +     8     122.436965   a                                                   + 
 +     9     158.630581   b                                                   + 
 +    10     163.202076   b                                                   + 
 +    11     174.768270   b                                                   + 
 +    12     189.414066   b                                                   + 
 + .......................................................................... +
 +        Character table from group theory analysis of eigenvectors          +
 +                           Point Group =  15, D4h                           +
 + .......................................................................... +
 +  Rep  Mul |    E   m                                                       +
 +           | --------                                                       +
 + a       4 |    1  -1                                                       +
 + b       8 |    1   1                                                       +
 + -------------------------------------------------------------------------- +
 +  q-pt=   19 (  0.083333  0.305556  0.305556)     0.0312500000              +
 + -------------------------------------------------------------------------- +
 +  Acoustic sum rule correction <   3.539601 cm-1 applied                    +
 +     N      Frequency irrep.                                                + 
 +                (cm-1)                                                      + 
 +                                                                            +
 +     1    -128.746270   a                                                   + 
 +     2    -109.996874   a                                                   + 
 +     3    -104.853784   a                                                   + 
 +     4     -76.686213   a                                                   + 
 +     5      82.695265   a                                                   + 
 +     6     100.368270   a                                                   + 
 +     7     111.864544   a                                                   + 
 +     8     122.962705   a                                                   + 
 +     9     152.109677   a                                                   + 
 +    10     155.370517   a                                                   + 
 +    11     168.125238   a                                                   + 
 +    12     182.452453   a                                                   + 
 + .......................................................................... +
 +        Character table from group theory analysis of eigenvectors          +
 +                           Point Group =  15, D4h                           +
 + .......................................................................... +
 +  Rep  Mul |    E                                                           +
 +           | ----                                                           +
 + a      12 |    1                                                           +
 + -------------------------------------------------------------------------- +
 +  q-pt=   20 (  0.166667  0.277778  0.277778)     0.0312500000              +
 + -------------------------------------------------------------------------- +
 +  Acoustic sum rule correction <   3.764565 cm-1 applied                    +
 +     N      Frequency irrep.                                                + 
 +                (cm-1)                                                      + 
 +                                                                            +
 +     1    -121.882799   a                                                   + 
 +     2    -107.653574   a                                                   + 
 +     3     -99.203951   a                                                   + 
 +     4     -78.071094   a                                                   + 
 +     5      88.489588   a                                                   + 
 +     6     105.643250   a                                                   + 
 +     7     106.525790   a                                                   + 
 +     8     118.683289   a                                                   + 
 +     9     144.687303   a                                                   + 
 +    10     146.488005   a                                                   + 
 +    11     160.614982   a                                                   + 
 +    12     173.765337   a                                                   + 
 + .......................................................................... +
 +        Character table from group theory analysis of eigenvectors          +
 +                           Point Group =  15, D4h                           +
 + .......................................................................... +
 +  Rep  Mul |    E                                                           +
 +           | ----                                                           +
 + a      12 |    1                                                           +
 + -------------------------------------------------------------------------- +
 +  q-pt=   21 (  0.250000  0.250000  0.250000)     0.0312500000              +
 + -------------------------------------------------------------------------- +
 +  Acoustic sum rule correction <   3.995293 cm-1 applied                    +
 +     N      Frequency irrep.                                                + 
 +                (cm-1)                                                      + 
 +                                                                            +
 +     1    -112.607404   a                                                   + 
 +     2    -107.430864   a                                                   + 
 +     3     -88.778040   b                                                   + 
 +     4     -77.695056   c                                                   + 
 +     5      88.834577   c                                                   + 
 +     6     100.230736   b                                                   + 
 +     7     106.330917   a                                                   + 
 +     8     110.987374   a                                                   + 
 +     9     142.309844   b                                                   + 
 +    10     144.261750   a                                                   + 
 +    11     149.949201   a                                                   + 
 +    12     155.482533   a                                                   + 
 + .......................................................................... +
 +        Character table from group theory analysis of eigenvectors          +
 +                           Point Group =  15, D4h                           +
 + .......................................................................... +
 +  Rep  Mul |    E   m                                                       +
 +           | --------                                                       +
 + a       7 |    1   0                                                       +
 + b       3 |    1   1                                                       +
 + c       2 |    1  -1                                                       +
 + -------------------------------------------------------------------------- +
 +  q-pt=   22 (  0.208333  0.208333  0.208333)     0.0312500000              +
 + -------------------------------------------------------------------------- +
 +  Acoustic sum rule correction <   2.871873 cm-1 applied                    +
 +     N      Frequency irrep.                                                + 
 +                (cm-1)                                                      + 
 +                                                                            +
 +     1    -116.308944   a                                                   + 
 +     2    -112.331272   a                                                   + 
 +     3     -81.982066   b                                                   + 
 +     4     -72.128014   c                                                   + 
 +     5      98.500135   c                                                   + 
 +     6     104.279642   b                                                   + 
 +     7     114.255841   a                                                   + 
 +     8     121.364583   a                                                   + 
 +     9     129.386025   b                                                   + 
 +    10     134.391839   a                                                   + 
 +    11     139.051925   c                                                   + 
 +    12     145.331049   a                                                   + 
 + .......................................................................... +
 +        Character table from group theory analysis of eigenvectors          +
 +                           Point Group =  15, D4h                           +
 + .......................................................................... +
 +  Rep  Mul |    E   m                                                       +
 +           | --------                                                       +
 + a       6 |    1   0                                                       +
 + b       3 |    1   1                                                       +
 + c       3 |    1  -1                                                       +
 + -------------------------------------------------------------------------- +
 +  q-pt=   23 (  0.166667  0.166667  0.166667)     0.0312500000              +
 + -------------------------------------------------------------------------- +
 +  Acoustic sum rule correction <   7.540995 cm-1 applied                    +
 +     N      Frequency irrep.                                                + 
 +                (cm-1)                                                      + 
 +                                                                            +
 +     1    -118.230541   a                                                   + 
 +     2    -115.606891   a                                                   + 
 +     3     -71.228746   b                                                   + 
 +     4     -63.044417   c                                                   + 
 +     5      97.900152   b                                                   + 
 +     6     106.475318   c                                                   + 
 +     7     112.372656   a                                                   + 
 +     8     117.067378   a                                                   + 
 +     9     123.006775   b                                                   + 
 +    10     128.159378   c                                                   + 
 +    11     137.685954   a                                                   + 
 +    12     142.167285   a                                                   + 
 + .......................................................................... +
 +        Character table from group theory analysis of eigenvectors          +
 +                           Point Group =  15, D4h                           +
 + .......................................................................... +
 +  Rep  Mul |    E   m                                                       +
 +           | --------                                                       +
 + a       6 |    1   0                                                       +
 + b       3 |    1   1                                                       +
 + c       3 |    1  -1                                                       +
 + -------------------------------------------------------------------------- +
 +  q-pt=   24 (  0.125000  0.125000  0.125000)     0.0312500000              +
 + -------------------------------------------------------------------------- +
 +  Acoustic sum rule correction <  12.437616 cm-1 applied                    +
 +     N      Frequency irrep.                                                + 
 +                (cm-1)                                                      + 
 +                                                                            +
 +     1    -118.886528   a                                                   + 
 +     2    -117.505558   a                                                   + 
 +     3     -56.926187   b                                                   + 
 +     4     -50.807835   c                                                   + 
 +     5      79.194042   b                                                   + 
 +     6      99.216212   a                                                   + 
 +     7     103.973069   a                                                   + 
 +     8     108.724304   c                                                   + 
 +     9     122.460782   c                                                   + 
 +    10     125.255078   b                                                   + 
[...]
 Divergence correction                          : off
 DFT+D: Semi-empirical dispersion correction    : off

 ************************* Pseudopotential Parameters **************************
  
 pseudopotential representation                 : reciprocal space
 <beta|phi> representation                      : reciprocal space

 **************************** Basis Set Parameters *****************************
  
 plane wave basis set cut-off                   :   400.0000   eV
 finite basis set correction                    : none

 **************************** Electronic Parameters ****************************
  
 number of  electrons                           :  40.00    
 net charge of system                           :  0.000    
 net spin   of system                           :  0.000    
 number of  up  spins                           :  20.00    
 number of down spins                           :  20.00    
 treating system as non-spin-polarized
 number of bands                                :         24

 ********************* Electronic Minimization Parameters **********************
  
 Method: Treating system as metallic with density mixing treatment of electrons,
         and number of  SD  steps               :          1
         and number of  CG  steps               :          4
  
 total energy / atom convergence tol.           : 0.1000E-04   eV
 eigen-energy convergence tolerance             : 0.1000E-05   eV
 max force / atom convergence tol.              : ignored
 convergence tolerance window                   :          3   cycles
 max. number of SCF cycles                      :         30
 number of fixed-spin iterations                :         10
 smearing scheme                                : Gaussian
 smearing width                                 : 0.4000E-01   eV
 Fermi energy convergence tolerance             : 0.1000E-06   eV
 periodic dipole correction                     : NONE

 ************************** Density Mixing Parameters **************************
  
 density-mixing scheme                          : Broyden
 max. length of mixing history                  :          7
 charge density mixing amplitude                : 0.8000    
 cut-off energy for mixing                      :  400.0       eV

 *********************** Population Analysis Parameters ************************
  
 Population analysis with cutoff                :  3.000       A

 ****************************** Phonon Parameters ******************************
  
 phonon calculation method                      : finite displacement
 finite displacement amplitude                  : 0.5292E-02   A
 fine phonon calculation method                 : supercell
 non-periodic force constant method             : Weighted cumulant sum
 LO/TO splitting term                           : not included
 acoustic phonon sum rule                       : correct D(q) in recip-space
 Born effective charges                         : not calculated
 Raman intensities                              : not calculated
 phonon k-points                                : use reduced set
 phonon DOS                                     : not calculated
 no timed backups

 ************************** Thermodynamics Parameters **************************
 Helmholtz free energy                          : calculated
 Initial temperature                            :  0.000       K
 Final temperature                              :  300.0       K
 Spacing between temperature values             :  3.000       K
 Number of temperature values                   :        102
 band convergence tolerance                     : 0.1000E-05   eV

 *******************************************************************************
  

                           -------------------------------
                                      Unit Cell
                           -------------------------------
        Real Lattice(A)                      Reciprocal Lattice(1/A)
   4.1653560   0.0000000   0.0000000        1.5084390  -0.0000000  -0.0000000
   0.0000000   4.1653560   0.0000000        0.0000000   1.5084390  -0.0000000
   0.0000000   0.0000000   2.1688118        0.0000000   0.0000000   2.8970635

                       Lattice parameters(A)       Cell Angles
                    a =    4.165356          alpha =   90.000000
                    b =    4.165356          beta  =   90.000000
                    c =    2.168812          gamma =   90.000000

                       Current cell volume =   37.629297       A**3

                           -------------------------------
                                     Cell Contents
                           -------------------------------
                         Total number of ions in cell =    4
                      Total number of species in cell =    1
                        Max number of any one species =    4

            xxxxxxxxxxxxxxxxxxxxxxxxxxxxxxxxxxxxxxxxxxxxxxxxxxxxxxxxxxxx
            x  Element    Atom        Fractional coordinates of atoms  x
            x            Number           u          v          w      x
            x----------------------------------------------------------x
            x  Ca           1         0.000000   0.000000   0.000000   x
            x  Ca           2         0.500000   0.500000   0.500000   x
            x  Ca           3         0.500000   0.000000   0.750000   x
            x  Ca           4         0.000000   0.500000   0.250000   x
            xxxxxxxxxxxxxxxxxxxxxxxxxxxxxxxxxxxxxxxxxxxxxxxxxxxxxxxxxxxx


                         No user defined ionic velocities

                           -------------------------------
                                   Details of Species
                           -------------------------------

                               Mass of species in AMU
                                    Ca   40.0780000

                          Electric Quadrupole Moment (Barn)
                                    Ca   -0.0408000 Isotope 43

                          Files used for pseudopotentials:
                                    Ca Pseudopotential generated on-the-fly

                           -------------------------------
                              k-Points For BZ Sampling
                           -------------------------------
                       MP grid size for SCF calculation is  2  2  2
                         Number of kpoints used =           1

             +++++++++++++++++++++++++++++++++++++++++++++++++++++++
             +  Number       Fractional coordinates        Weight  +
             +-----------------------------------------------------+
             +     1  -0.250000  -0.250000  -0.250000   1.0000000  +
             +++++++++++++++++++++++++++++++++++++++++++++++++++++++

                           -------------------------------
                               Symmetry and Constraints
                           -------------------------------

                      Number of symmetry operations   =          16
                      Number of ionic constraints     =           3
                      Maximum deviation from symmetry = 0.510092E-15     ANG
               Point group of crystal =    15: D4h, 4/mmm, 4/m 2/m 2/m
           Set iprint > 1 for details on symmetry rotations/translations

                          Centre of mass is constrained
             Set iprint > 1 for details of linear ionic constraints

                         Number of cell constraints= 4
                         Cell constraints are:  1 1 3 0 0 0

                         External pressure/stress (GPa)
                          0.00000   0.00000   0.00000
                                    0.00000   0.00000
                                              0.00000
  
+---------------- MEMORY AND SCRATCH DISK ESTIMATES PER NODE -----------------+
|                                                     Memory          Disk    |
| Model and support data                               40.7 MB         0.0 MB |
| Electronic energy minimisation requirements           1.6 MB         0.0 MB |
|                                               ----------------------------- |
| Approx. total storage required per node              42.3 MB         0.0 MB |
|                                                                             |
| Requirements will fluctuate during execution and may exceed these estimates |
+-----------------------------------------------------------------------------+
------------------------------------------------------------------------ <-- SCF
SCF loop      Energy           Fermi           Energy gain       Timer   <-- SCF
                               energy          per atom          (sec)   <-- SCF
------------------------------------------------------------------------ <-- SCF
Initial  -3.60783052E+003  0.00000000E+000                         9.07  <-- SCF
      1  -3.90714929E+003  2.22638076E+001   7.48296929E+001       9.14  <-- SCF
      2  -3.98298518E+003  1.99787901E+001   1.89589730E+001       9.20  <-- SCF
      3  -3.98447901E+003  1.99942507E+001   3.73456931E-001       9.26  <-- SCF
      4  -3.98448506E+003  1.99320718E+001   1.51167198E-003       9.36  <-- SCF
      5  -3.98449146E+003  1.99586617E+001   1.60011748E-003       9.46  <-- SCF
      6  -3.98448892E+003  1.99586400E+001  -6.35330108E-004       9.56  <-- SCF
      7  -3.98448853E+003  1.99576173E+001  -9.72613035E-005       9.65  <-- SCF
      8  -3.98448852E+003  1.99575783E+001  -1.37191155E-006       9.72  <-- SCF
      9  -3.98448852E+003  1.99574941E+001  -5.23344551E-007       9.78  <-- SCF
------------------------------------------------------------------------ <-- SCF
 
Final energy, E             =  -3984.483682263     eV
Final free energy (E-TS)    =  -3984.488519210     eV
(energies not corrected for finite basis set)
 
NB est. 0K energy (E-0.5TS)      =  -3984.486100736     eV
 

Writing model to Ca.check
                                                                         
              The requested supercell has been generated                 
                                                                         

                           -------------------------------
                                      Unit Cell
                           -------------------------------
        Real Lattice(A)                      Reciprocal Lattice(1/A)
   8.3307120   0.0000000   0.0000000        0.7542195  -0.0000000  -0.0000000
   0.0000000   8.3307120   0.0000000        0.0000000   0.7542195  -0.0000000
   0.0000000   0.0000000   4.3376235        0.0000000   0.0000000   1.4485317

                       Lattice parameters(A)       Cell Angles
                    a =    8.330712          alpha =   90.000000
                    b =    8.330712          beta  =   90.000000
                    c =    4.337624          gamma =   90.000000

                       Current cell volume =  301.034379       A**3

                           -------------------------------
                                     Cell Contents
                           -------------------------------
                         Total number of ions in cell =   32
                      Total number of species in cell =    1
                        Max number of any one species =   32

            xxxxxxxxxxxxxxxxxxxxxxxxxxxxxxxxxxxxxxxxxxxxxxxxxxxxxxxxxxxx
            x  Element    Atom        Fractional coordinates of atoms  x
            x            Number           u          v          w      x
            x----------------------------------------------------------x
            x  Ca           1         0.000000   0.000000   0.000000   x
            x  Ca           2         0.250000   0.250000   0.250000   x
            x  Ca           3         0.250000   0.000000   0.375000   x
            x  Ca           4         0.000000   0.250000   0.125000   x
            x  Ca           5         0.500000   0.000000   0.000000   x
            x  Ca           6         0.750000   0.250000   0.250000   x
            x  Ca           7         0.750000   0.000000   0.375000   x
            x  Ca           8         0.500000   0.250000   0.125000   x
            x  Ca           9         0.000000   0.500000   0.000000   x
            x  Ca          10         0.250000   0.750000   0.250000   x
            x  Ca          11         0.250000   0.500000   0.375000   x
            x  Ca          12         0.000000   0.750000   0.125000   x
            x  Ca          13         0.500000   0.500000   0.000000   x
            x  Ca          14         0.750000   0.750000   0.250000   x
            x  Ca          15         0.750000   0.500000   0.375000   x
            x  Ca          16         0.500000   0.750000   0.125000   x
            x  Ca          17         0.000000   0.000000   0.500000   x
            x  Ca          18         0.250000   0.250000   0.750000   x
            x  Ca          19         0.250000   0.000000   0.875000   x
            x  Ca          20         0.000000   0.250000   0.625000   x
            x  Ca          21         0.500000   0.000000   0.500000   x
            x  Ca          22         0.750000   0.250000   0.750000   x
            x  Ca          23         0.750000   0.000000   0.875000   x
            x  Ca          24         0.500000   0.250000   0.625000   x
            x  Ca          25         0.000000   0.500000   0.500000   x
            x  Ca          26         0.250000   0.750000   0.750000   x
            x  Ca          27         0.250000   0.500000   0.875000   x
            x  Ca          28         0.000000   0.750000   0.625000   x
            x  Ca          29         0.500000   0.500000   0.500000   x
            x  Ca          30         0.750000   0.750000   0.750000   x
            x  Ca          31         0.750000   0.500000   0.875000   x
            x  Ca          32         0.500000   0.750000   0.625000   x
            xxxxxxxxxxxxxxxxxxxxxxxxxxxxxxxxxxxxxxxxxxxxxxxxxxxxxxxxxxxx


                         No user defined ionic velocities

                           -------------------------------
                                   Details of Species
                           -------------------------------

                               Mass of species in AMU
                                    Ca   40.0780000

                          Electric Quadrupole Moment (Barn)
                                    Ca   -0.0408000 Isotope 43

                          Files used for pseudopotentials:
                                    Ca Pseudopotential generated on-the-fly

                           -------------------------------
                              k-Points For BZ Sampling
                           -------------------------------
                       MP grid size for SCF calculation is  1  1  1
                         Number of kpoints used =           1

             +++++++++++++++++++++++++++++++++++++++++++++++++++++++
             +  Number       Fractional coordinates        Weight  +
             +-----------------------------------------------------+
             +     1  -0.500000  -0.500000  -0.500000   1.0000000  +
             +++++++++++++++++++++++++++++++++++++++++++++++++++++++

                           -------------------------------
                               Symmetry and Constraints
                           -------------------------------

                      Number of symmetry operations   =         128
                      Number of ionic constraints     =           3
                      Maximum deviation from symmetry = 0.510092E-15     ANG
               Point group of crystal =    15: D4h, 4/mmm, 4/m 2/m 2/m
           Set iprint > 1 for details on symmetry rotations/translations

                          Centre of mass is constrained
             Set iprint > 1 for details of linear ionic constraints

                         Number of cell constraints= 4
                         Cell constraints are:  1 1 3 0 0 0

                         External pressure/stress (GPa)
                          0.00000   0.00000   0.00000
                                    0.00000   0.00000
                                              0.00000
  +---------------- MEMORY AND SCRATCH DISK ESTIMATES PER NODE -----------------+
  |                                                     Memory          Disk    |
  | Model and support data                               39.0 MB         0.0 MB |
  | Finite displacement phonon requirements              76.9 MB         0.0 MB |
  |                                               ----------------------------- |
  | Approx. total storage required per node             116.0 MB         0.0 MB |
  |                                                                             |
  | Requirements will fluctuate during execution and may exceed these estimates |
  +-----------------------------------------------------------------------------+
------------------------------------------------------------------------ <-- SCF
SCF loop      Energy           Fermi           Energy gain       Timer   <-- SCF
                               energy          per atom          (sec)   <-- SCF
------------------------------------------------------------------------ <-- SCF
Initial  -2.86957875E+004  0.00000000E+000                        12.58  <-- SCF
      1  -3.10749783E+004  2.31761589E+001   7.43497137E+001      34.53  <-- SCF
      2  -3.18560580E+004  2.01931745E+001   2.44087400E+001      55.25  <-- SCF
      3  -3.18752686E+004  1.99873820E+001   6.00331243E-001      74.76  <-- SCF
      4  -3.18758725E+004  1.99390347E+001   1.88713608E-002      94.81  <-- SCF
      5  -3.18759414E+004  1.99602176E+001   2.15412680E-003     115.39  <-- SCF
      6  -3.18759236E+004  1.99593613E+001  -5.56226250E-004     135.18  <-- SCF
      7  -3.18759081E+004  1.99575522E+001  -4.84686641E-004     153.74  <-- SCF
      8  -3.18759082E+004  1.99575445E+001   3.55334937E-006     166.30  <-- SCF
      9  -3.18759082E+004  1.99575194E+001   1.33342804E-008     177.43  <-- SCF
------------------------------------------------------------------------ <-- SCF
 Perturbation    1 (of    6): Ca    1 X at q=( 0.000, 0.000, 0.000):    178.61s
  +---------------- MEMORY AND SCRATCH DISK ESTIMATES PER NODE -----------------+
  |                                                     Memory          Disk    |
  | Model and support data                              175.6 MB         0.0 MB |
  | Finite displacement phonon requirements              76.9 MB         0.0 MB |
  |                                               ----------------------------- |
  | Approx. total storage required per node             252.5 MB         0.0 MB |
  |                                                                             |
  | Requirements will fluctuate during execution and may exceed these estimates |
  +-----------------------------------------------------------------------------+
 *Warning* max. SCF cycles performed but system has not reached the groundstate.
  
Current total energy, E     =  -31879.99089948     eV
Current free energy (E-TS)  =  -31880.06452384     eV
(energies not corrected for finite basis set)
 
NB est. 0K energy (E-0.5TS)      =  -31880.02771166     eV
 
 *Warning* max. SCF cycles performed but system has not reached the groundstate.
  
Current total energy, E     =  -31882.27625198     eV
Current free energy (E-TS)  =  -31882.27662107     eV
(energies not corrected for finite basis set)
 
NB est. 0K energy (E-0.5TS)      =  -31882.27643652     eV
 


************************************************************************
 SCF convergence of perturbed structure failed. Aborting calculation. 
 Writing checkpoint file 
************************************************************************

Writing model to Ca.check
